PROCAR lm decomposed
# of k-points:   25         # of bands:   14         # of ions:    4

 k-point     1 :    0.00000000 0.00000000 0.00000000     weight = 0.04000000

band     1 # energy   -6.42577756 # occ.  1.00000000

ion      s     py     pz     px    dxy    dyz    dz2    dxz  x2-y2    tot
    1  0.110  0.000  0.000  0.000  0.000  0.000  0.000  0.000  0.000  0.110
    2  0.100  0.000  0.000  0.000  0.000  0.000  0.000  0.000  0.000  0.100
    3  0.105  0.000  0.000  0.000  0.000  0.000  0.000  0.000  0.000  0.105
    4  0.115  0.000  0.000  0.000  0.000  0.000  0.000  0.000  0.000  0.115
tot    0.429  0.000  0.000  0.000  0.000  0.000  0.000  0.000  0.000  0.429

band     2 # energy   -4.18696758 # occ.  1.00000000

ion      s     py     pz     px    dxy    dyz    dz2    dxz  x2-y2    tot
    1  0.111  0.002  0.002  0.003  0.000  0.000  0.000  0.000  0.000  0.117
    2  0.119  0.002  0.002  0.002  0.000  0.000  0.000  0.000  0.000  0.125
    3  0.116  0.002  0.002  0.002  0.000  0.000  0.000  0.000  0.000  0.123
    4  0.109  0.002  0.002  0.003  0.000  0.000  0.000  0.000  0.000  0.115
tot    0.455  0.008  0.008  0.010  0.000  0.000  0.000  0.000  0.000  0.481

band     3 # energy   -1.38569100 # occ.  1.00000000

ion      s     py     pz     px    dxy    dyz    dz2    dxz  x2-y2    tot
    1  0.047  0.015  0.015  0.016  0.000  0.000  0.000  0.000  0.000  0.093
    2  0.051  0.014  0.014  0.015  0.000  0.000  0.000  0.000  0.000  0.096
    3  0.049  0.016  0.016  0.016  0.000  0.000  0.000  0.000  0.000  0.097
    4  0.044  0.017  0.017  0.017  0.000  0.000  0.000  0.000  0.000  0.094
tot    0.191  0.062  0.062  0.064  0.000  0.000  0.000  0.000  0.000  0.379

band     4 # energy    4.05142851 # occ.  1.00000000

ion      s     py     pz     px    dxy    dyz    dz2    dxz  x2-y2    tot
    1  0.000  0.074  0.074  0.000  0.000  0.000  0.000  0.000  0.000  0.148
    2  0.000  0.036  0.036  0.000  0.000  0.000  0.000  0.000  0.000  0.072
    3  0.000  0.038  0.038  0.000  0.000  0.000  0.000  0.000  0.000  0.077
    4  0.000  0.076  0.076  0.000  0.000  0.000  0.000  0.000  0.000  0.152
tot    0.000  0.225  0.225  0.000  0.000  0.000  0.000  0.000  0.000  0.449

band     5 # energy    4.30091273 # occ.  1.00000000

ion      s     py     pz     px    dxy    dyz    dz2    dxz  x2-y2    tot
    1  0.000  0.014  0.014  0.063  0.000  0.000  0.000  0.000  0.000  0.091
    2  0.000  0.022  0.022  0.076  0.000  0.000  0.000  0.000  0.000  0.121
    3  0.000  0.022  0.022  0.081  0.000  0.000  0.000  0.000  0.000  0.126
    4  0.000  0.014  0.014  0.067  0.000  0.000  0.000  0.000  0.000  0.096
tot    0.000  0.073  0.073  0.287  0.000  0.000  0.000  0.000  0.000  0.433

band     6 # energy    5.22301535 # occ.  1.00000000

ion      s     py     pz     px    dxy    dyz    dz2    dxz  x2-y2    tot
    1  0.000  0.040  0.040  0.000  0.000  0.000  0.000  0.000  0.000  0.080
    2  0.000  0.073  0.073  0.000  0.000  0.000  0.000  0.000  0.000  0.145
    3  0.000  0.071  0.071  0.000  0.000  0.000  0.000  0.000  0.000  0.143
    4  0.000  0.038  0.038  0.000  0.000  0.000  0.000  0.000  0.000  0.076
tot    0.000  0.222  0.222  0.000  0.000  0.000  0.000  0.000  0.000  0.444

band     7 # energy    5.39865965 # occ.  1.00000000

ion      s     py     pz     px    dxy    dyz    dz2    dxz  x2-y2    tot
    1  0.000  0.000  0.000  0.117  0.000  0.000  0.000  0.000  0.000  0.117
    2  0.000  0.000  0.000  0.105  0.000  0.000  0.000  0.000  0.000  0.105
    3  0.000  0.000  0.000  0.100  0.000  0.000  0.000  0.000  0.000  0.101
    4  0.000  0.000  0.000  0.111  0.000  0.000  0.000  0.000  0.000  0.111
tot    0.000  0.001  0.001  0.433  0.000  0.000  0.000  0.000  0.000  0.435

band     8 # energy    5.59022832 # occ.  1.00000000

ion      s     py     pz     px    dxy    dyz    dz2    dxz  x2-y2    tot
    1  0.000  0.055  0.055  0.001  0.000  0.000  0.000  0.000  0.000  0.111
    2  0.000  0.051  0.051  0.000  0.000  0.000  0.000  0.000  0.000  0.102
    3  0.000  0.050  0.050  0.000  0.000  0.000  0.000  0.000  0.000  0.100
    4  0.000  0.054  0.054  0.001  0.000  0.000  0.000  0.000  0.000  0.110
tot    0.001  0.210  0.210  0.002  0.000  0.000  0.000  0.000  0.000  0.423

band     9 # energy    6.82048450 # occ.  0.95726918

ion      s     py     pz     px    dxy    dyz    dz2    dxz  x2-y2    tot
    1  0.099  0.005  0.005  0.002  0.000  0.000  0.000  0.000  0.000  0.110
    2  0.088  0.001  0.001  0.003  0.000  0.000  0.000  0.000  0.000  0.094
    3  0.090  0.003  0.003  0.003  0.000  0.000  0.000  0.000  0.000  0.100
    4  0.101  0.009  0.009  0.002  0.000  0.000  0.000  0.000  0.000  0.120
tot    0.378  0.018  0.018  0.010  0.000  0.000  0.000  0.000  0.000  0.424

band    10 # energy    7.84380375 # occ. -0.00000000

ion      s     py     pz     px    dxy    dyz    dz2    dxz  x2-y2    tot
    1  0.001  0.045  0.045  0.004  0.000  0.000  0.000  0.000  0.000  0.095
    2  0.000  0.036  0.036  0.000  0.000  0.000  0.000  0.000  0.000  0.073
    3  0.000  0.033  0.033  0.000  0.000  0.000  0.000  0.000  0.000  0.066
    4  0.001  0.040  0.040  0.005  0.000  0.000  0.000  0.000  0.000  0.085
tot    0.002  0.154  0.154  0.009  0.000  0.000  0.000  0.000  0.000  0.318

band    11 # energy    7.95320102 # occ. -0.00000000

ion      s     py     pz     px    dxy    dyz    dz2    dxz  x2-y2    tot
    1  0.000  0.000  0.000  0.094  0.000  0.000  0.000  0.000  0.000  0.094
    2  0.000  0.002  0.002  0.058  0.000  0.000  0.000  0.000  0.000  0.062
    3  0.000  0.002  0.002  0.053  0.000  0.000  0.000  0.000  0.000  0.058
    4  0.000  0.000  0.000  0.091  0.000  0.000  0.000  0.000  0.000  0.092
tot    0.000  0.005  0.005  0.297  0.000  0.000  0.000  0.000  0.000  0.306

band    12 # energy    8.11919531 # occ. -0.00000000

ion      s     py     pz     px    dxy    dyz    dz2    dxz  x2-y2    tot
    1  0.000  0.028  0.028  0.000  0.000  0.000  0.000  0.000  0.000  0.056
    2  0.000  0.048  0.048  0.000  0.000  0.000  0.000  0.000  0.000  0.096
    3  0.000  0.046  0.046  0.000  0.000  0.000  0.000  0.000  0.000  0.091
    4  0.000  0.026  0.026  0.000  0.000  0.000  0.000  0.000  0.000  0.052
tot    0.000  0.148  0.148  0.000  0.000  0.000  0.000  0.000  0.000  0.296

band    13 # energy    8.49958331 # occ.  0.00000000

ion      s     py     pz     px    dxy    dyz    dz2    dxz  x2-y2    tot
    1  0.175  0.000  0.000  0.001  0.000  0.000  0.000  0.000  0.000  0.176
    2  0.187  0.000  0.000  0.000  0.000  0.000  0.000  0.000  0.000  0.187
    3  0.185  0.000  0.000  0.000  0.000  0.000  0.000  0.000  0.000  0.185
    4  0.173  0.000  0.000  0.000  0.000  0.000  0.000  0.000  0.000  0.174
tot    0.720  0.000  0.000  0.002  0.000  0.000  0.000  0.000  0.000  0.722

band    14 # energy    8.66308929 # occ.  0.00000000

ion      s     py     pz     px    dxy    dyz    dz2    dxz  x2-y2    tot
    1  0.000  0.005  0.005  0.015  0.000  0.000  0.000  0.000  0.000  0.026
    2  0.000  0.012  0.012  0.052  0.000  0.000  0.000  0.000  0.000  0.076
    3  0.000  0.011  0.011  0.058  0.000  0.000  0.000  0.000  0.000  0.080
    4  0.000  0.005  0.005  0.018  0.000  0.000  0.000  0.000  0.000  0.029
tot    0.000  0.033  0.033  0.144  0.000  0.000  0.000  0.000  0.000  0.211


 k-point     2 :   -0.50000000 0.25000000 0.25000000     weight = 0.04000000

band     1 # energy   -5.65091498 # occ.  1.00000000

ion      s     py     pz     px    dxy    dyz    dz2    dxz  x2-y2    tot
    1  0.110  0.001  0.001  0.002  0.000  0.000  0.000  0.000  0.000  0.114
    2  0.096  0.001  0.001  0.001  0.000  0.000  0.000  0.000  0.000  0.100
    3  0.103  0.001  0.001  0.001  0.000  0.000  0.000  0.000  0.000  0.106
    4  0.116  0.001  0.001  0.001  0.000  0.000  0.000  0.000  0.000  0.120
tot    0.425  0.005  0.005  0.005  0.000  0.000  0.000  0.000  0.000  0.440

band     2 # energy   -3.78610455 # occ.  1.00000000

ion      s     py     pz     px    dxy    dyz    dz2    dxz  x2-y2    tot
    1  0.103  0.001  0.001  0.010  0.000  0.000  0.000  0.000  0.000  0.114
    2  0.113  0.001  0.001  0.010  0.000  0.000  0.000  0.000  0.000  0.125
    3  0.110  0.001  0.001  0.010  0.000  0.000  0.000  0.000  0.000  0.123
    4  0.100  0.001  0.001  0.010  0.000  0.000  0.000  0.000  0.000  0.112
tot    0.427  0.004  0.004  0.039  0.000  0.000  0.000  0.000  0.000  0.474

band     3 # energy   -0.87918693 # occ.  1.00000000

ion      s     py     pz     px    dxy    dyz    dz2    dxz  x2-y2    tot
    1  0.077  0.008  0.008  0.019  0.000  0.000  0.000  0.000  0.000  0.113
    2  0.083  0.008  0.008  0.018  0.000  0.000  0.000  0.000  0.000  0.118
    3  0.078  0.010  0.010  0.019  0.000  0.000  0.000  0.000  0.000  0.117
    4  0.071  0.010  0.010  0.020  0.000  0.000  0.000  0.000  0.000  0.111
tot    0.309  0.036  0.036  0.077  0.000  0.000  0.000  0.000  0.000  0.458

band     4 # energy    1.58069380 # occ.  1.00000000

ion      s     py     pz     px    dxy    dyz    dz2    dxz  x2-y2    tot
    1  0.044  0.017  0.017  0.018  0.000  0.000  0.000  0.000  0.000  0.097
    2  0.048  0.022  0.022  0.020  0.000  0.000  0.000  0.000  0.000  0.113
    3  0.050  0.021  0.021  0.024  0.000  0.000  0.000  0.000  0.000  0.117
    4  0.047  0.016  0.016  0.022  0.000  0.000  0.000  0.000  0.000  0.100
tot    0.189  0.077  0.077  0.085  0.000  0.000  0.000  0.000  0.000  0.427

band     5 # energy    1.99775625 # occ.  1.00000000

ion      s     py     pz     px    dxy    dyz    dz2    dxz  x2-y2    tot
    1  0.015  0.025  0.025  0.031  0.000  0.000  0.000  0.000  0.000  0.095
    2  0.011  0.020  0.020  0.030  0.000  0.000  0.000  0.000  0.000  0.082
    3  0.010  0.022  0.022  0.027  0.000  0.000  0.000  0.000  0.000  0.081
    4  0.014  0.026  0.026  0.028  0.000  0.000  0.000  0.000  0.000  0.095
tot    0.050  0.094  0.094  0.116  0.000  0.000  0.000  0.000  0.000  0.353

band     6 # energy    3.13962437 # occ.  1.00000000

ion      s     py     pz     px    dxy    dyz    dz2    dxz  x2-y2    tot
    1  0.000  0.062  0.062  0.000  0.000  0.000  0.000  0.000  0.000  0.125
    2  0.000  0.040  0.040  0.000  0.000  0.000  0.000  0.000  0.000  0.080
    3  0.000  0.041  0.041  0.000  0.000  0.000  0.000  0.000  0.000  0.083
    4  0.000  0.064  0.064  0.000  0.000  0.000  0.000  0.000  0.000  0.128
tot    0.000  0.207  0.207  0.000  0.000  0.000  0.000  0.000  0.000  0.415

band     7 # energy    4.52270345 # occ.  1.00000000

ion      s     py     pz     px    dxy    dyz    dz2    dxz  x2-y2    tot
    1  0.000  0.046  0.046  0.000  0.000  0.000  0.000  0.000  0.000  0.093
    2  0.000  0.064  0.064  0.000  0.000  0.000  0.000  0.000  0.000  0.129
    3  0.000  0.063  0.063  0.000  0.000  0.000  0.000  0.000  0.000  0.126
    4  0.000  0.045  0.045  0.000  0.000  0.000  0.000  0.000  0.000  0.090
tot    0.000  0.219  0.219  0.000  0.000  0.000  0.000  0.000  0.000  0.438

band     8 # energy    4.72255876 # occ.  1.00000000

ion      s     py     pz     px    dxy    dyz    dz2    dxz  x2-y2    tot
    1  0.000  0.017  0.017  0.072  0.000  0.000  0.000  0.000  0.000  0.106
    2  0.000  0.018  0.018  0.074  0.000  0.000  0.000  0.000  0.000  0.109
    3  0.000  0.019  0.019  0.069  0.000  0.000  0.000  0.000  0.000  0.107
    4  0.000  0.018  0.018  0.067  0.000  0.000  0.000  0.000  0.000  0.103
tot    0.000  0.071  0.071  0.281  0.000  0.000  0.000  0.000  0.000  0.424

band     9 # energy    6.83985593 # occ.  0.74541882

ion      s     py     pz     px    dxy    dyz    dz2    dxz  x2-y2    tot
    1  0.043  0.002  0.002  0.029  0.000  0.000  0.000  0.000  0.000  0.076
    2  0.013  0.001  0.001  0.016  0.000  0.000  0.000  0.000  0.000  0.031
    3  0.014  0.001  0.001  0.019  0.000  0.000  0.000  0.000  0.000  0.034
    4  0.044  0.001  0.001  0.034  0.000  0.000  0.000  0.000  0.000  0.081
tot    0.114  0.005  0.005  0.098  0.000  0.000  0.000  0.000  0.000  0.221

band    10 # energy    7.31810480 # occ. -0.00000000

ion      s     py     pz     px    dxy    dyz    dz2    dxz  x2-y2    tot
    1  0.067  0.010  0.010  0.003  0.000  0.000  0.000  0.000  0.000  0.090
    2  0.094  0.010  0.010  0.008  0.000  0.000  0.000  0.000  0.000  0.123
    3  0.091  0.008  0.008  0.012  0.000  0.000  0.000  0.000  0.000  0.120
    4  0.064  0.008  0.008  0.005  0.000  0.000  0.000  0.000  0.000  0.084
tot    0.317  0.036  0.036  0.028  0.000  0.000  0.000  0.000  0.000  0.417

band    11 # energy    8.78073414 # occ.  0.00000000

ion      s     py     pz     px    dxy    dyz    dz2    dxz  x2-y2    tot
    1  0.000  0.014  0.014  0.050  0.000  0.000  0.000  0.000  0.000  0.078
    2  0.000  0.010  0.010  0.054  0.000  0.000  0.000  0.000  0.000  0.075
    3  0.000  0.009  0.009  0.049  0.000  0.000  0.000  0.000  0.000  0.068
    4  0.000  0.012  0.012  0.045  0.000  0.000  0.000  0.000  0.000  0.069
tot    0.001  0.046  0.046  0.197  0.000  0.000  0.000  0.000  0.000  0.290

band    12 # energy    9.01851383 # occ.  0.00000000

ion      s     py     pz     px    dxy    dyz    dz2    dxz  x2-y2    tot
    1  0.000  0.031  0.031  0.000  0.000  0.000  0.000  0.000  0.000  0.063
    2  0.000  0.038  0.038  0.000  0.000  0.000  0.000  0.000  0.000  0.076
    3  0.000  0.036  0.036  0.000  0.000  0.000  0.000  0.000  0.000  0.073
    4  0.000  0.030  0.030  0.000  0.000  0.000  0.000  0.000  0.000  0.060
tot    0.000  0.136  0.136  0.000  0.000  0.000  0.000  0.000  0.000  0.272

band    13 # energy    9.95209032 # occ.  0.00000000

ion      s     py     pz     px    dxy    dyz    dz2    dxz  x2-y2    tot
    1  0.011  0.015  0.015  0.009  0.000  0.000  0.000  0.000  0.000  0.049
    2  0.009  0.019  0.019  0.008  0.000  0.000  0.000  0.000  0.000  0.055
    3  0.011  0.018  0.018  0.007  0.000  0.000  0.000  0.000  0.000  0.055
    4  0.013  0.014  0.014  0.009  0.000  0.000  0.000  0.000  0.000  0.051
tot    0.044  0.067  0.067  0.033  0.000  0.000  0.000  0.000  0.000  0.210

band    14 # energy   11.01889481 # occ.  0.00000000

ion      s     py     pz     px    dxy    dyz    dz2    dxz  x2-y2    tot
    1  0.031  0.023  0.023  0.027  0.000  0.000  0.000  0.000  0.000  0.104
    2  0.027  0.019  0.019  0.023  0.000  0.000  0.000  0.000  0.000  0.089
    3  0.030  0.017  0.017  0.025  0.000  0.000  0.000  0.000  0.000  0.089
    4  0.033  0.021  0.021  0.028  0.000  0.000  0.000  0.000  0.000  0.102
tot    0.120  0.080  0.080  0.103  0.000  0.000  0.000  0.000  0.000  0.384


 k-point     3 :    0.00000000 0.25000000 0.00000000     weight = 0.04000000

band     1 # energy   -5.63599913 # occ.  1.00000000

ion      s     py     pz     px    dxy    dyz    dz2    dxz  x2-y2    tot
    1  0.107  0.002  0.002  0.001  0.000  0.000  0.000  0.000  0.000  0.111
    2  0.097  0.001  0.001  0.001  0.000  0.000  0.000  0.000  0.000  0.101
    3  0.104  0.001  0.001  0.001  0.000  0.000  0.000  0.000  0.000  0.108
    4  0.114  0.002  0.002  0.001  0.000  0.000  0.000  0.000  0.000  0.118
tot    0.422  0.006  0.006  0.005  0.000  0.000  0.000  0.000  0.000  0.439

band     2 # energy   -3.78827222 # occ.  1.00000000

ion      s     py     pz     px    dxy    dyz    dz2    dxz  x2-y2    tot
    1  0.105  0.001  0.009  0.001  0.000  0.000  0.000  0.000  0.000  0.116
    2  0.113  0.001  0.010  0.001  0.000  0.000  0.000  0.000  0.000  0.124
    3  0.109  0.001  0.010  0.001  0.000  0.000  0.000  0.000  0.000  0.121
    4  0.101  0.001  0.010  0.002  0.000  0.000  0.000  0.000  0.000  0.113
tot    0.426  0.004  0.039  0.005  0.000  0.000  0.000  0.000  0.000  0.474

band     3 # energy   -0.85377492 # occ.  1.00000000

ion      s     py     pz     px    dxy    dyz    dz2    dxz  x2-y2    tot
    1  0.080  0.008  0.018  0.009  0.000  0.000  0.000  0.000  0.000  0.114
    2  0.080  0.008  0.017  0.009  0.000  0.000  0.000  0.000  0.000  0.114
    3  0.077  0.010  0.019  0.010  0.000  0.000  0.000  0.000  0.000  0.115
    4  0.076  0.010  0.020  0.010  0.000  0.000  0.000  0.000  0.000  0.116
tot    0.312  0.037  0.073  0.037  0.000  0.000  0.000  0.000  0.000  0.459

band     4 # energy    1.41831152 # occ.  1.00000000

ion      s     py     pz     px    dxy    dyz    dz2    dxz  x2-y2    tot
    1  0.056  0.032  0.026  0.025  0.000  0.000  0.000  0.000  0.000  0.140
    2  0.041  0.012  0.013  0.014  0.000  0.000  0.000  0.000  0.000  0.079
    3  0.042  0.011  0.016  0.011  0.000  0.000  0.000  0.000  0.000  0.080
    4  0.058  0.031  0.030  0.023  0.000  0.000  0.000  0.000  0.000  0.142
tot    0.196  0.086  0.085  0.073  0.000  0.000  0.000  0.000  0.000  0.441

band     5 # energy    1.88040830 # occ.  1.00000000

ion      s     py     pz     px    dxy    dyz    dz2    dxz  x2-y2    tot
    1  0.007  0.016  0.027  0.013  0.000  0.000  0.000  0.000  0.000  0.064
    2  0.022  0.030  0.038  0.030  0.000  0.000  0.000  0.000  0.000  0.120
    3  0.021  0.032  0.033  0.032  0.000  0.000  0.000  0.000  0.000  0.118
    4  0.005  0.018  0.023  0.015  0.000  0.000  0.000  0.000  0.000  0.061
tot    0.055  0.097  0.121  0.090  0.000  0.000  0.000  0.000  0.000  0.363

band     6 # energy    3.25612857 # occ.  1.00000000

ion      s     py     pz     px    dxy    dyz    dz2    dxz  x2-y2    tot
    1  0.000  0.047  0.000  0.054  0.000  0.000  0.000  0.000  0.000  0.101
    2  0.000  0.053  0.000  0.045  0.000  0.000  0.000  0.000  0.000  0.098
    3  0.000  0.052  0.000  0.048  0.000  0.000  0.000  0.000  0.000  0.101
    4  0.000  0.046  0.000  0.058  0.000  0.000  0.000  0.000  0.000  0.104
tot    0.000  0.198  0.001  0.204  0.000  0.000  0.000  0.000  0.000  0.404

band     7 # energy    4.58634733 # occ.  1.00000000

ion      s     py     pz     px    dxy    dyz    dz2    dxz  x2-y2    tot
    1  0.000  0.016  0.018  0.071  0.000  0.000  0.000  0.000  0.000  0.105
    2  0.000  0.019  0.020  0.076  0.000  0.000  0.000  0.000  0.000  0.114
    3  0.000  0.018  0.020  0.074  0.000  0.000  0.000  0.000  0.000  0.112
    4  0.000  0.014  0.019  0.069  0.000  0.000  0.000  0.000  0.000  0.102
tot    0.000  0.067  0.076  0.290  0.000  0.000  0.000  0.000  0.000  0.434

band     8 # energy    4.78283241 # occ.  1.00000000

ion      s     py     pz     px    dxy    dyz    dz2    dxz  x2-y2    tot
    1  0.000  0.054  0.052  0.000  0.000  0.000  0.000  0.000  0.000  0.106
    2  0.000  0.051  0.054  0.000  0.000  0.000  0.000  0.000  0.000  0.105
    3  0.000  0.053  0.051  0.000  0.000  0.000  0.000  0.000  0.000  0.104
    4  0.000  0.056  0.049  0.000  0.000  0.000  0.000  0.000  0.000  0.105
tot    0.000  0.214  0.205  0.000  0.000  0.000  0.000  0.000  0.000  0.420

band     9 # energy    6.96766552 # occ. -0.00327343

ion      s     py     pz     px    dxy    dyz    dz2    dxz  x2-y2    tot
    1  0.021  0.000  0.024  0.003  0.000  0.000  0.000  0.000  0.000  0.049
    2  0.029  0.002  0.023  0.001  0.000  0.000  0.000  0.000  0.000  0.055
    3  0.029  0.001  0.025  0.001  0.000  0.000  0.000  0.000  0.000  0.057
    4  0.022  0.000  0.025  0.003  0.000  0.000  0.000  0.000  0.000  0.051
tot    0.102  0.004  0.097  0.009  0.000  0.000  0.000  0.000  0.000  0.212

band    10 # energy    7.40024241 # occ. -0.00000000

ion      s     py     pz     px    dxy    dyz    dz2    dxz  x2-y2    tot
    1  0.079  0.007  0.007  0.014  0.000  0.000  0.000  0.000  0.000  0.107
    2  0.076  0.008  0.006  0.009  0.000  0.000  0.000  0.000  0.000  0.101
    3  0.073  0.008  0.008  0.007  0.000  0.000  0.000  0.000  0.000  0.096
    4  0.076  0.006  0.008  0.012  0.000  0.000  0.000  0.000  0.000  0.102
tot    0.305  0.030  0.029  0.042  0.000  0.000  0.000  0.000  0.000  0.406

band    11 # energy    8.81880973 # occ.  0.00000000

ion      s     py     pz     px    dxy    dyz    dz2    dxz  x2-y2    tot
    1  0.000  0.043  0.038  0.000  0.000  0.000  0.000  0.000  0.000  0.082
    2  0.000  0.035  0.040  0.000  0.000  0.000  0.000  0.000  0.000  0.076
    3  0.000  0.031  0.035  0.000  0.000  0.000  0.000  0.000  0.000  0.066
    4  0.000  0.038  0.033  0.000  0.000  0.000  0.000  0.000  0.000  0.070
tot    0.000  0.148  0.145  0.001  0.000  0.000  0.000  0.000  0.000  0.294

band    12 # energy    9.06934872 # occ.  0.00000000

ion      s     py     pz     px    dxy    dyz    dz2    dxz  x2-y2    tot
    1  0.001  0.013  0.014  0.039  0.000  0.000  0.000  0.000  0.000  0.066
    2  0.000  0.011  0.011  0.050  0.000  0.000  0.000  0.000  0.000  0.073
    3  0.000  0.010  0.011  0.051  0.000  0.000  0.000  0.000  0.000  0.073
    4  0.001  0.012  0.014  0.039  0.000  0.000  0.000  0.000  0.000  0.066
tot    0.002  0.046  0.050  0.179  0.000  0.000  0.000  0.000  0.000  0.277

band    13 # energy    9.82732992 # occ.  0.00000000

ion      s     py     pz     px    dxy    dyz    dz2    dxz  x2-y2    tot
    1  0.007  0.015  0.003  0.022  0.000  0.000  0.000  0.000  0.000  0.046
    2  0.009  0.019  0.005  0.013  0.000  0.000  0.000  0.000  0.000  0.047
    3  0.011  0.020  0.010  0.013  0.000  0.000  0.000  0.000  0.000  0.054
    4  0.008  0.017  0.007  0.023  0.000  0.000  0.000  0.000  0.000  0.055
tot    0.035  0.071  0.025  0.070  0.000  0.000  0.000  0.000  0.000  0.202

band    14 # energy   11.02267757 # occ.  0.00000000

ion      s     py     pz     px    dxy    dyz    dz2    dxz  x2-y2    tot
    1  0.036  0.021  0.026  0.020  0.000  0.000  0.000  0.000  0.000  0.103
    2  0.026  0.018  0.023  0.017  0.000  0.000  0.000  0.000  0.000  0.084
    3  0.026  0.018  0.024  0.020  0.000  0.000  0.000  0.000  0.000  0.089
    4  0.038  0.022  0.027  0.022  0.000  0.000  0.000  0.000  0.000  0.108
tot    0.126  0.078  0.100  0.079  0.000  0.000  0.000  0.000  0.000  0.383


 k-point     4 :   -0.50000000 0.00000000 0.00000000     weight = 0.04000000

band     1 # energy   -5.71546849 # occ.  1.00000000

ion      s     py     pz     px    dxy    dyz    dz2    dxz  x2-y2    tot
    1  0.143  0.001  0.001  0.002  0.000  0.000  0.000  0.000  0.000  0.148
    2  0.015  0.002  0.002  0.002  0.000  0.000  0.000  0.000  0.000  0.023
    3  0.070  0.001  0.001  0.001  0.000  0.000  0.000  0.000  0.000  0.074
    4  0.198  0.000  0.000  0.000  0.000  0.000  0.000  0.000  0.000  0.198
tot    0.426  0.005  0.005  0.006  0.000  0.000  0.000  0.000  0.000  0.442

band     2 # energy   -5.57497955 # occ.  1.00000000

ion      s     py     pz     px    dxy    dyz    dz2    dxz  x2-y2    tot
    1  0.069  0.001  0.001  0.001  0.000  0.000  0.000  0.000  0.000  0.072
    2  0.195  0.000  0.000  0.000  0.000  0.000  0.000  0.000  0.000  0.195
    3  0.142  0.001  0.001  0.001  0.000  0.000  0.000  0.000  0.000  0.147
    4  0.016  0.003  0.003  0.003  0.000  0.000  0.000  0.000  0.000  0.024
tot    0.422  0.005  0.005  0.005  0.000  0.000  0.000  0.000  0.000  0.438

band     3 # energy    1.49270011 # occ.  1.00000000

ion      s     py     pz     px    dxy    dyz    dz2    dxz  x2-y2    tot
    1  0.085  0.001  0.001  0.001  0.000  0.000  0.000  0.000  0.000  0.089
    2  0.082  0.000  0.000  0.000  0.000  0.000  0.000  0.000  0.000  0.082
    3  0.011  0.039  0.039  0.039  0.000  0.000  0.000  0.000  0.000  0.129
    4  0.015  0.038  0.038  0.043  0.000  0.000  0.000  0.000  0.000  0.134
tot    0.194  0.079  0.079  0.083  0.000  0.000  0.000  0.000  0.000  0.434

band     4 # energy    1.64426700 # occ.  1.00000000

ion      s     py     pz     px    dxy    dyz    dz2    dxz  x2-y2    tot
    1  0.008  0.035  0.035  0.044  0.000  0.000  0.000  0.000  0.000  0.122
    2  0.017  0.038  0.038  0.041  0.000  0.000  0.000  0.000  0.000  0.135
    3  0.087  0.001  0.001  0.000  0.000  0.000  0.000  0.000  0.000  0.088
    4  0.076  0.000  0.000  0.000  0.000  0.000  0.000  0.000  0.000  0.076
tot    0.188  0.074  0.074  0.085  0.000  0.000  0.000  0.000  0.000  0.422

band     5 # energy    4.31728383 # occ.  1.00000000

ion      s     py     pz     px    dxy    dyz    dz2    dxz  x2-y2    tot
    1  0.000  0.104  0.104  0.000  0.000  0.000  0.000  0.000  0.000  0.208
    2  0.000  0.000  0.000  0.000  0.000  0.000  0.000  0.000  0.000  0.000
    3  0.000  0.008  0.008  0.000  0.000  0.000  0.000  0.000  0.000  0.017
    4  0.000  0.112  0.112  0.000  0.000  0.000  0.000  0.000  0.000  0.225
tot    0.000  0.225  0.225  0.000  0.000  0.000  0.000  0.000  0.000  0.449

band     6 # energy    4.65619146 # occ.  1.00000000

ion      s     py     pz     px    dxy    dyz    dz2    dxz  x2-y2    tot
    1  0.000  0.000  0.000  0.001  0.000  0.000  0.000  0.000  0.000  0.002
    2  0.000  0.034  0.034  0.129  0.000  0.000  0.000  0.000  0.000  0.198
    3  0.000  0.036  0.036  0.142  0.000  0.000  0.000  0.000  0.000  0.214
    4  0.000  0.002  0.002  0.011  0.000  0.000  0.000  0.000  0.000  0.016
tot    0.000  0.073  0.073  0.283  0.000  0.000  0.000  0.000  0.000  0.429

band     7 # energy    4.69304098 # occ.  1.00000000

ion      s     py     pz     px    dxy    dyz    dz2    dxz  x2-y2    tot
    1  0.000  0.009  0.009  0.000  0.000  0.000  0.000  0.000  0.000  0.017
    2  0.000  0.107  0.107  0.000  0.000  0.000  0.000  0.000  0.000  0.215
    3  0.000  0.099  0.099  0.000  0.000  0.000  0.000  0.000  0.000  0.198
    4  0.000  0.000  0.000  0.000  0.000  0.000  0.000  0.000  0.000  0.000
tot    0.000  0.215  0.215  0.000  0.000  0.000  0.000  0.000  0.000  0.430

band     8 # energy    4.81174124 # occ.  1.00000000

ion      s     py     pz     px    dxy    dyz    dz2    dxz  x2-y2    tot
    1  0.000  0.035  0.035  0.136  0.000  0.000  0.000  0.000  0.000  0.206
    2  0.000  0.002  0.002  0.011  0.000  0.000  0.000  0.000  0.000  0.015
    3  0.000  0.000  0.000  0.002  0.000  0.000  0.000  0.000  0.000  0.002
    4  0.000  0.032  0.032  0.131  0.000  0.000  0.000  0.000  0.000  0.195
tot    0.000  0.070  0.070  0.279  0.000  0.000  0.000  0.000  0.000  0.419

band     9 # energy    7.23646258 # occ. -0.00000000

ion      s     py     pz     px    dxy    dyz    dz2    dxz  x2-y2    tot
    1  0.134  0.020  0.020  0.010  0.000  0.000  0.000  0.000  0.000  0.183
    2  0.000  0.004  0.004  0.008  0.000  0.000  0.000  0.000  0.000  0.016
    3  0.027  0.000  0.000  0.000  0.000  0.000  0.000  0.000  0.000  0.028
    4  0.164  0.013  0.013  0.006  0.000  0.000  0.000  0.000  0.000  0.196
tot    0.326  0.037  0.037  0.023  0.000  0.000  0.000  0.000  0.000  0.424

band    10 # energy    7.38545398 # occ. -0.00000000

ion      s     py     pz     px    dxy    dyz    dz2    dxz  x2-y2    tot
    1  0.029  0.000  0.000  0.002  0.000  0.000  0.000  0.000  0.000  0.030
    2  0.158  0.013  0.013  0.009  0.000  0.000  0.000  0.000  0.000  0.192
    3  0.132  0.016  0.016  0.015  0.000  0.000  0.000  0.000  0.000  0.179
    4  0.000  0.006  0.006  0.003  0.000  0.000  0.000  0.000  0.000  0.016
tot    0.319  0.035  0.035  0.029  0.000  0.000  0.000  0.000  0.000  0.417

band    11 # energy    8.59587132 # occ.  0.00000000

ion      s     py     pz     px    dxy    dyz    dz2    dxz  x2-y2    tot
    1  0.001  0.023  0.023  0.098  0.000  0.000  0.000  0.000  0.000  0.144
    2  0.001  0.004  0.004  0.018  0.000  0.000  0.000  0.000  0.000  0.026
    3  0.000  0.001  0.001  0.003  0.000  0.000  0.000  0.000  0.000  0.006
    4  0.001  0.018  0.018  0.086  0.000  0.000  0.000  0.000  0.000  0.122
tot    0.003  0.045  0.045  0.204  0.000  0.000  0.000  0.000  0.000  0.297

band    12 # energy    8.91569199 # occ.  0.00000000

ion      s     py     pz     px    dxy    dyz    dz2    dxz  x2-y2    tot
    1  0.000  0.003  0.003  0.000  0.000  0.000  0.000  0.000  0.000  0.005
    2  0.000  0.060  0.060  0.000  0.000  0.000  0.000  0.000  0.000  0.121
    3  0.000  0.069  0.069  0.000  0.000  0.000  0.000  0.000  0.000  0.137
    4  0.000  0.010  0.010  0.000  0.000  0.000  0.000  0.000  0.000  0.020
tot    0.000  0.141  0.141  0.000  0.000  0.000  0.000  0.000  0.000  0.283

band    13 # energy    8.96722723 # occ.  0.00000000

ion      s     py     pz     px    dxy    dyz    dz2    dxz  x2-y2    tot
    1  0.000  0.000  0.000  0.004  0.000  0.000  0.000  0.000  0.000  0.005
    2  0.000  0.021  0.021  0.077  0.000  0.000  0.000  0.000  0.000  0.118
    3  0.000  0.022  0.022  0.092  0.000  0.000  0.000  0.000  0.000  0.135
    4  0.000  0.004  0.004  0.016  0.000  0.000  0.000  0.000  0.000  0.025
tot    0.000  0.047  0.047  0.189  0.000  0.000  0.000  0.000  0.000  0.284

band    14 # energy    9.16181982 # occ.  0.00000000

ion      s     py     pz     px    dxy    dyz    dz2    dxz  x2-y2    tot
    1  0.000  0.063  0.063  0.000  0.000  0.000  0.000  0.000  0.000  0.125
    2  0.000  0.011  0.011  0.000  0.000  0.000  0.000  0.000  0.000  0.022
    3  0.000  0.002  0.002  0.000  0.000  0.000  0.000  0.000  0.000  0.004
    4  0.000  0.055  0.055  0.000  0.000  0.000  0.000  0.000  0.000  0.110
tot    0.000  0.131  0.131  0.000  0.000  0.000  0.000  0.000  0.000  0.262


 k-point     5 :    0.00000000-0.50000000-0.50000000     weight = 0.04000000

band     1 # energy   -4.21218143 # occ.  1.00000000

ion      s     py     pz     px    dxy    dyz    dz2    dxz  x2-y2    tot
    1  0.124  0.002  0.002  0.004  0.000  0.000  0.000  0.000  0.000  0.131
    2  0.090  0.002  0.002  0.002  0.000  0.000  0.000  0.000  0.000  0.095
    3  0.104  0.002  0.002  0.001  0.000  0.000  0.000  0.000  0.000  0.110
    4  0.138  0.002  0.002  0.003  0.000  0.000  0.000  0.000  0.000  0.146
tot    0.456  0.008  0.008  0.010  0.000  0.000  0.000  0.000  0.000  0.482

band     2 # energy   -2.47368687 # occ.  1.00000000

ion      s     py     pz     px    dxy    dyz    dz2    dxz  x2-y2    tot
    1  0.092  0.000  0.000  0.018  0.000  0.000  0.000  0.000  0.000  0.111
    2  0.116  0.000  0.000  0.022  0.000  0.000  0.000  0.000  0.000  0.138
    3  0.112  0.000  0.000  0.023  0.000  0.000  0.000  0.000  0.000  0.135
    4  0.082  0.000  0.000  0.021  0.000  0.000  0.000  0.000  0.000  0.103