Automatically generated mesh
      96
Reciprocal lattice
    0.25000000000000    0.12500000000000    0.12500000000000             1
   -0.25000000000000   -0.12500000000000   -0.12500000000000             1
    0.00000000000000   -0.12500000000000    0.00000000000000             1
    0.00000000000000    0.12500000000000    0.00000000000000             1
    0.00000000000000    0.00000000000000   -0.12500000000000             1
    0.00000000000000    0.00000000000000    0.12500000000000             1
   -0.25000000000000    0.12500000000000    0.12500000000000             1
    0.25000000000000   -0.12500000000000   -0.12500000000000             1
    0.50000000000000   -0.12500000000000    0.00000000000000             1
    0.50000000000000    0.12500000000000    0.00000000000000             1
    0.50000000000000    0.00000000000000   -0.12500000000000             1
    0.50000000000000    0.00000000000000    0.12500000000000             1
    0.25000000000000    0.37500000000000    0.12500000000000             1
   -0.25000000000000   -0.37500000000000   -0.12500000000000             1
   -0.25000000000000   -0.12500000000000   -0.37500000000000             1
    0.25000000000000    0.12500000000000    0.37500000000000             1
    0.00000000000000   -0.12500000000000    0.25000000000000             1
    0.00000000000000    0.12500000000000   -0.25000000000000             1
    0.50000000000000    0.37500000000000    0.25000000000000             1
    0.50000000000000   -0.37500000000000   -0.25000000000000             1
    0.50000000000000   -0.25000000000000   -0.37500000000000             1
    0.50000000000000    0.25000000000000    0.37500000000000             1
    0.00000000000000   -0.25000000000000    0.12500000000000             1
    0.00000000000000    0.25000000000000   -0.12500000000000             1
   -0.25000000000000    0.37500000000000    0.12500000000000             1
    0.25000000000000   -0.37500000000000   -0.12500000000000             1
    0.25000000000000   -0.12500000000000   -0.37500000000000             1
   -0.25000000000000    0.12500000000000    0.37500000000000             1
    0.50000000000000   -0.12500000000000    0.25000000000000             1
    0.50000000000000    0.12500000000000   -0.25000000000000             1
    0.00000000000000    0.37500000000000    0.25000000000000             1
    0.00000000000000   -0.37500000000000   -0.25000000000000             1
    0.00000000000000   -0.25000000000000   -0.37500000000000             1
    0.00000000000000    0.25000000000000    0.37500000000000             1
    0.50000000000000   -0.25000000000000    0.12500000000000             1
    0.50000000000000    0.25000000000000   -0.12500000000000             1
    0.25000000000000   -0.37500000000000    0.12500000000000             1
   -0.25000000000000    0.37500000000000   -0.12500000000000             1
   -0.25000000000000   -0.12500000000000    0.37500000000000             1
    0.25000000000000    0.12500000000000   -0.37500000000000             1
    0.00000000000000   -0.12500000000000    0.50000000000000             1
    0.00000000000000    0.12500000000000    0.50000000000000             1
    0.00000000000000   -0.37500000000000    0.50000000000000             1
    0.00000000000000    0.37500000000000    0.50000000000000             1
    0.00000000000000    0.50000000000000    0.37500000000000             1
    0.00000000000000    0.50000000000000   -0.37500000000000             1
    0.00000000000000    0.50000000000000    0.12500000000000             1
    0.00000000000000    0.50000000000000   -0.12500000000000             1
   -0.25000000000000   -0.37500000000000    0.12500000000000             1
    0.25000000000000    0.37500000000000   -0.12500000000000             1
    0.25000000000000   -0.12500000000000    0.37500000000000             1
   -0.25000000000000    0.12500000000000   -0.37500000000000             1
    0.50000000000000   -0.12500000000000    0.50000000000000             1
    0.50000000000000    0.12500000000000    0.50000000000000             1
    0.50000000000000   -0.37500000000000    0.50000000000000             1
    0.50000000000000    0.37500000000000    0.50000000000000             1
    0.50000000000000    0.50000000000000    0.37500000000000             1
    0.50000000000000    0.50000000000000   -0.37500000000000             1
    0.50000000000000    0.50000000000000    0.12500000000000             1
    0.50000000000000    0.50000000000000   -0.12500000000000             1
    0.25000000000000   -0.12500000000000    0.12500000000000             1
   -0.25000000000000    0.12500000000000   -0.12500000000000             1
   -0.25000000000000   -0.12500000000000    0.12500000000000             1
    0.25000000000000    0.12500000000000   -0.12500000000000             1
    0.00000000000000   -0.12500000000000   -0.25000000000000             1
    0.00000000000000    0.12500000000000    0.25000000000000             1
    0.50000000000000   -0.12500000000000   -0.25000000000000             1
    0.50000000000000    0.12500000000000    0.25000000000000             1
    0.50000000000000    0.25000000000000    0.12500000000000             1
    0.50000000000000   -0.25000000000000   -0.12500000000000             1
    0.00000000000000    0.25000000000000    0.12500000000000             1
    0.00000000000000   -0.25000000000000   -0.12500000000000             1
    0.25000000000000    0.37500000000000    0.37500000000000             1
   -0.25000000000000   -0.37500000000000   -0.37500000000000             1
    0.50000000000000   -0.37500000000000    0.00000000000000             1
    0.50000000000000    0.37500000000000    0.00000000000000             1
    0.50000000000000    0.00000000000000   -0.37500000000000             1
    0.50000000000000    0.00000000000000    0.37500000000000             1
   -0.25000000000000    0.37500000000000    0.37500000000000             1
    0.25000000000000   -0.37500000000000   -0.37500000000000             1
    0.00000000000000   -0.37500000000000    0.00000000000000             1
    0.00000000000000    0.37500000000000    0.00000000000000             1
    0.00000000000000    0.00000000000000   -0.37500000000000             1
    0.00000000000000    0.00000000000000    0.37500000000000             1
    0.25000000000000   -0.37500000000000    0.37500000000000             1
   -0.25000000000000    0.37500000000000   -0.37500000000000             1
   -0.25000000000000   -0.37500000000000    0.37500000000000             1
    0.25000000000000    0.37500000000000   -0.37500000000000             1
    0.50000000000000   -0.37500000000000    0.25000000000000             1
    0.50000000000000    0.37500000000000   -0.25000000000000             1
    0.00000000000000   -0.37500000000000    0.25000000000000             1
    0.00000000000000    0.37500000000000   -0.25000000000000             1
    0.00000000000000   -0.25000000000000    0.37500000000000             1
    0.00000000000000    0.25000000000000   -0.37500000000000             1
    0.50000000000000   -0.25000000000000    0.37500000000000             1
    0.50000000000000    0.25000000000000   -0.37500000000000             1
