Automatically generated mesh
      88
Reciprocal lattice
    0.12500000000000    0.12500000000000    0.12500000000000            12
   -0.12500000000000   -0.12500000000000   -0.12500000000000            12
    0.12500000000000    0.00000000000000    0.00000000000000            36
   -0.12500000000000    0.00000000000000    0.00000000000000            36
    0.37500000000000    0.12500000000000    0.12500000000000            36
   -0.37500000000000   -0.12500000000000   -0.12500000000000            36
    0.12500000000000    0.00000000000000   -0.25000000000000            36
   -0.12500000000000    0.00000000000000    0.25000000000000            36
    0.37500000000000    0.25000000000000    0.25000000000000            36
   -0.37500000000000   -0.25000000000000   -0.25000000000000            36
    0.12500000000000   -0.25000000000000    0.00000000000000            36
   -0.12500000000000    0.25000000000000    0.00000000000000            36
   -0.37500000000000    0.12500000000000    0.12500000000000            36
    0.37500000000000   -0.12500000000000   -0.12500000000000            36
    0.12500000000000    0.00000000000000    0.50000000000000            36
   -0.12500000000000    0.00000000000000    0.50000000000000            36
   -0.37500000000000    0.50000000000000    0.50000000000000            36
    0.37500000000000    0.50000000000000    0.50000000000000            36
    0.12500000000000    0.50000000000000    0.00000000000000            36
   -0.12500000000000    0.50000000000000    0.00000000000000            36
   -0.12500000000000    0.12500000000000    0.12500000000000            36
    0.12500000000000   -0.12500000000000   -0.12500000000000            36
    0.12500000000000    0.00000000000000    0.25000000000000            36
   -0.12500000000000    0.00000000000000   -0.25000000000000            36
   -0.12500000000000   -0.25000000000000   -0.25000000000000            36
    0.12500000000000    0.25000000000000    0.25000000000000            36
    0.12500000000000    0.25000000000000    0.00000000000000            36
   -0.12500000000000   -0.25000000000000    0.00000000000000            36
    0.37500000000000    0.37500000000000    0.12500000000000            36
   -0.37500000000000   -0.37500000000000   -0.12500000000000            36
    0.37500000000000    0.25000000000000    0.00000000000000            36
   -0.37500000000000   -0.25000000000000    0.00000000000000            36
    0.37500000000000    0.00000000000000    0.25000000000000            36
   -0.37500000000000    0.00000000000000   -0.25000000000000            36
    0.12500000000000   -0.25000000000000   -0.25000000000000            36
   -0.12500000000000    0.25000000000000    0.25000000000000            36
   -0.37500000000000    0.37500000000000    0.12500000000000            36
    0.37500000000000   -0.37500000000000   -0.12500000000000            36
    0.37500000000000    0.25000000000000   -0.25000000000000            36
   -0.37500000000000   -0.25000000000000    0.25000000000000            36
   -0.37500000000000    0.25000000000000    0.50000000000000            36
    0.37500000000000   -0.25000000000000    0.50000000000000            36
    0.12500000000000    0.50000000000000   -0.25000000000000            36
   -0.12500000000000    0.50000000000000    0.25000000000000            36
    0.25000000000000    0.50000000000000   -0.12500000000000            36
   -0.25000000000000    0.50000000000000    0.12500000000000            36
    0.25000000000000   -0.25000000000000   -0.37500000000000            36
   -0.25000000000000    0.25000000000000    0.37500000000000            36
    0.50000000000000   -0.25000000000000    0.37500000000000            36
    0.50000000000000    0.25000000000000   -0.37500000000000            36
    0.37500000000000   -0.12500000000000   -0.37500000000000            36
   -0.37500000000000    0.12500000000000    0.37500000000000            36
   -0.12500000000000    0.37500000000000    0.12500000000000            36
    0.12500000000000   -0.37500000000000   -0.12500000000000            36
    0.37500000000000    0.25000000000000    0.50000000000000            36
   -0.37500000000000   -0.25000000000000    0.50000000000000            36
   -0.12500000000000    0.50000000000000   -0.25000000000000            36
    0.12500000000000    0.50000000000000    0.25000000000000            36
    0.12500000000000    0.25000000000000   -0.25000000000000            36
   -0.12500000000000   -0.25000000000000    0.25000000000000            36
    0.25000000000000   -0.25000000000000   -0.12500000000000            36
   -0.25000000000000    0.25000000000000    0.12500000000000            36
    0.50000000000000   -0.25000000000000   -0.37500000000000            36
    0.50000000000000    0.25000000000000    0.37500000000000            36
    0.25000000000000    0.50000000000000    0.12500000000000            36
   -0.25000000000000    0.50000000000000   -0.12500000000000            36
    0.12500000000000   -0.12500000000000   -0.37500000000000            36
   -0.12500000000000    0.12500000000000    0.37500000000000            36
   -0.37500000000000   -0.37500000000000    0.12500000000000            36
    0.37500000000000    0.37500000000000   -0.12500000000000            36
   -0.37500000000000    0.50000000000000    0.00000000000000            36
    0.37500000000000    0.50000000000000    0.00000000000000            36
   -0.37500000000000    0.00000000000000    0.50000000000000            36
    0.37500000000000    0.00000000000000    0.50000000000000            36
    0.12500000000000    0.50000000000000    0.50000000000000            36
   -0.12500000000000    0.50000000000000    0.50000000000000            36
    0.37500000000000    0.37500000000000    0.37500000000000            12
   -0.37500000000000   -0.37500000000000   -0.37500000000000            12
    0.37500000000000    0.00000000000000    0.00000000000000            36
   -0.37500000000000    0.00000000000000    0.00000000000000            36
   -0.37500000000000    0.37500000000000    0.37500000000000            36
    0.37500000000000   -0.37500000000000   -0.37500000000000            36
    0.37500000000000    0.00000000000000   -0.25000000000000            36
   -0.37500000000000    0.00000000000000    0.25000000000000            36
   -0.37500000000000    0.25000000000000    0.25000000000000            36
    0.37500000000000   -0.25000000000000   -0.25000000000000            36
    0.37500000000000   -0.25000000000000    0.00000000000000            36
   -0.37500000000000    0.25000000000000    0.00000000000000            36
