PROCAR lm decomposed
# of k-points:   25         # of bands:   20         # of ions:    4

 k-point     1 :    0.00000000 0.00000000 0.00000000     weight = 0.04000000

band     1 # energy   -6.20914072 # occ.  1.00000000

ion      s     py     pz     px    dxy    dyz    dz2    dxz  x2-y2    tot
    1  0.113  0.000  0.000  0.000  0.000  0.000  0.000  0.000  0.000  0.113
    2  0.095  0.000  0.000  0.000  0.000  0.000  0.000  0.000  0.000  0.095
    3  0.100  0.000  0.000  0.000  0.000  0.000  0.000  0.000  0.000  0.100
    4  0.118  0.000  0.000  0.000  0.000  0.000  0.000  0.000  0.000  0.118
tot    0.427  0.000  0.000  0.000  0.000  0.000  0.000  0.000  0.000  0.428
    1  0.075  0.000  0.000  0.000  0.000  0.000  0.000  0.000  0.000  0.075
    2  0.063  0.000  0.000  0.000  0.000  0.000  0.000  0.000  0.000  0.063
    3  0.066  0.000  0.000  0.000  0.000  0.000  0.000  0.000  0.000  0.066
    4  0.078  0.000  0.000  0.000  0.000  0.000  0.000  0.000  0.000  0.078
tot    0.281  0.000  0.000  0.000  0.000  0.000  0.000  0.000  0.000  0.281
    1  0.060  0.000  0.000  0.000  0.000  0.000  0.000  0.000  0.000  0.060
    2  0.050  0.000  0.000  0.000  0.000  0.000  0.000  0.000  0.000  0.050
    3  0.053  0.000  0.000  0.000  0.000  0.000  0.000  0.000  0.000  0.053
    4  0.062  0.000  0.000  0.000  0.000  0.000  0.000  0.000  0.000  0.062
tot    0.224  0.000  0.000  0.000  0.000  0.000  0.000  0.000  0.000  0.224
    1  0.061  0.000  0.000  0.000  0.000  0.000  0.000  0.000  0.000  0.061
    2  0.051  0.000  0.000  0.000  0.000  0.000  0.000  0.000  0.000  0.051
    3  0.054  0.000  0.000  0.000  0.000  0.000  0.000  0.000  0.000  0.054
    4  0.064  0.000  0.000  0.000  0.000  0.000  0.000  0.000  0.000  0.064
tot    0.231  0.000  0.000  0.000  0.000  0.000  0.000  0.000  0.000  0.231

band     2 # energy   -6.20913607 # occ.  1.00000000

ion      s     py     pz     px    dxy    dyz    dz2    dxz  x2-y2    tot
    1  0.113  0.000  0.000  0.000  0.000  0.000  0.000  0.000  0.000  0.113
    2  0.095  0.000  0.000  0.000  0.000  0.000  0.000  0.000  0.000  0.095
    3  0.100  0.000  0.000  0.000  0.000  0.000  0.000  0.000  0.000  0.100
    4  0.118  0.000  0.000  0.000  0.000  0.000  0.000  0.000  0.000  0.118
tot    0.427  0.000  0.000  0.000  0.000  0.000  0.000  0.000  0.000  0.428
    1 -0.075 -0.000 -0.000 -0.000  0.000  0.000  0.000  0.000  0.000 -0.075
    2 -0.063 -0.000 -0.000 -0.000  0.000  0.000  0.000  0.000  0.000 -0.063
    3 -0.066 -0.000 -0.000 -0.000  0.000  0.000  0.000  0.000  0.000 -0.066
    4 -0.078 -0.000 -0.000 -0.000  0.000  0.000  0.000  0.000  0.000 -0.078
tot   -0.281 -0.000 -0.000 -0.000  0.000  0.000  0.000  0.000  0.000 -0.281
    1 -0.060 -0.000 -0.000 -0.000  0.000  0.000  0.000  0.000  0.000 -0.060
    2 -0.050 -0.000 -0.000 -0.000  0.000  0.000  0.000  0.000  0.000 -0.050
    3 -0.053 -0.000 -0.000 -0.000  0.000  0.000  0.000  0.000  0.000 -0.053
    4 -0.062 -0.000 -0.000 -0.000  0.000  0.000  0.000  0.000  0.000 -0.062
tot   -0.224 -0.000 -0.000 -0.000  0.000  0.000  0.000  0.000  0.000 -0.224
    1 -0.061 -0.000 -0.000 -0.000  0.000  0.000  0.000  0.000  0.000 -0.061
    2 -0.051 -0.000 -0.000 -0.000  0.000  0.000  0.000  0.000  0.000 -0.051
    3 -0.054 -0.000 -0.000 -0.000  0.000  0.000  0.000  0.000  0.000 -0.054
    4 -0.064 -0.000 -0.000 -0.000  0.000  0.000  0.000  0.000  0.000 -0.064
tot   -0.231 -0.000 -0.000 -0.000  0.000  0.000  0.000  0.000  0.000 -0.231

band     3 # energy   -3.97780773 # occ.  1.00000000

ion      s     py     pz     px    dxy    dyz    dz2    dxz  x2-y2    tot
    1  0.107  0.002  0.002  0.003  0.000  0.000  0.000  0.000  0.000  0.113
    2  0.122  0.002  0.002  0.002  0.000  0.000  0.000  0.000  0.000  0.128
    3  0.120  0.002  0.002  0.002  0.000  0.000  0.000  0.000  0.000  0.127
    4  0.104  0.002  0.002  0.003  0.000  0.000  0.000  0.000  0.000  0.111
tot    0.453  0.008  0.008  0.010  0.000  0.000  0.000  0.000  0.000  0.479
    1 -0.034 -0.001 -0.001 -0.001  0.000  0.000  0.000  0.000  0.000 -0.036
    2 -0.039 -0.001 -0.001 -0.001  0.000  0.000  0.000  0.000  0.000 -0.041
    3 -0.039 -0.001 -0.001 -0.001  0.000  0.000  0.000  0.000  0.000 -0.041
    4 -0.034 -0.001 -0.001 -0.001  0.000  0.000  0.000  0.000  0.000 -0.036
tot   -0.146 -0.003 -0.003 -0.003  0.000  0.000  0.000  0.000  0.000 -0.154
    1 -0.078 -0.001 -0.001 -0.002  0.000  0.000  0.000  0.000  0.000 -0.083
    2 -0.089 -0.002 -0.002 -0.002  0.000  0.000  0.000  0.000  0.000 -0.094
    3 -0.088 -0.002 -0.002 -0.002  0.000  0.000  0.000  0.000  0.000 -0.093
    4 -0.076 -0.001 -0.001 -0.002  0.000  0.000  0.000  0.000  0.000 -0.081
tot   -0.331 -0.006 -0.006 -0.007  0.000  0.000  0.000  0.000  0.000 -0.350
    1 -0.064 -0.001 -0.001 -0.002  0.000  0.000  0.000  0.000  0.000 -0.068
    2 -0.073 -0.001 -0.001 -0.001  0.000  0.000  0.000  0.000  0.000 -0.077
    3 -0.072 -0.001 -0.001 -0.001  0.000  0.000  0.000  0.000  0.000 -0.076
    4 -0.063 -0.001 -0.001 -0.002  0.000  0.000  0.000  0.000  0.000 -0.067
tot   -0.272 -0.005 -0.005 -0.006  0.000  0.000  0.000  0.000  0.000 -0.288

band     4 # energy   -3.97780665 # occ.  1.00000000

ion      s     py     pz     px    dxy    dyz    dz2    dxz  x2-y2    tot
    1  0.107  0.002  0.002  0.003  0.000  0.000  0.000  0.000  0.000  0.113
    2  0.122  0.002  0.002  0.002  0.000  0.000  0.000  0.000  0.000  0.128
    3  0.120  0.002  0.002  0.002  0.000  0.000  0.000  0.000  0.000  0.127
    4  0.104  0.002  0.002  0.003  0.000  0.000  0.000  0.000  0.000  0.111
tot    0.453  0.008  0.008  0.010  0.000  0.000  0.000  0.000  0.000  0.479
    1  0.034  0.001  0.001  0.001  0.000  0.000  0.000  0.000  0.000  0.036
    2  0.039  0.001  0.001  0.001  0.000  0.000  0.000  0.000  0.000  0.041
    3  0.039  0.001  0.001  0.001  0.000  0.000  0.000  0.000  0.000  0.041
    4  0.034  0.001  0.001  0.001  0.000  0.000  0.000  0.000  0.000  0.036
tot    0.146  0.003  0.003  0.003  0.000  0.000  0.000  0.000  0.000  0.154
    1  0.078  0.001  0.001  0.002  0.000  0.000  0.000  0.000  0.000  0.083
    2  0.089  0.002  0.002  0.002  0.000  0.000  0.000  0.000  0.000  0.094
    3  0.088  0.002  0.002  0.002  0.000  0.000  0.000  0.000  0.000  0.093
    4  0.076  0.001  0.001  0.002  0.000  0.000  0.000  0.000  0.000  0.081
tot    0.331  0.006  0.006  0.007  0.000  0.000  0.000  0.000  0.000  0.350
    1  0.064  0.001  0.001  0.002  0.000  0.000  0.000  0.000  0.000  0.068
    2  0.073  0.001  0.001  0.001  0.000  0.000  0.000  0.000  0.000  0.077
    3  0.072  0.001  0.001  0.001  0.000  0.000  0.000  0.000  0.000  0.076
    4  0.063  0.001  0.001  0.002  0.000  0.000  0.000  0.000  0.000  0.067
tot    0.272  0.005  0.005  0.006  0.000  0.000  0.000  0.000  0.000  0.288

band     5 # energy   -1.13390167 # occ.  1.00000000

ion      s     py     pz     px    dxy    dyz    dz2    dxz  x2-y2    tot
    1  0.047  0.015  0.015  0.016  0.000  0.000  0.000  0.000  0.000  0.093
    2  0.051  0.014  0.014  0.015  0.000  0.000  0.000  0.000  0.000  0.095
    3  0.048  0.016  0.016  0.016  0.000  0.000  0.000  0.000  0.000  0.096
    4  0.044  0.017  0.017  0.017  0.000  0.000  0.000  0.000  0.000  0.094
tot    0.190  0.062  0.062  0.064  0.000  0.000  0.000  0.000  0.000  0.377
    1  0.031  0.010  0.010  0.011  0.000  0.000  0.000  0.000  0.000  0.061
    2  0.034  0.009  0.009  0.010  0.000  0.000  0.000  0.000  0.000  0.063
    3  0.032  0.011  0.011  0.010  0.000  0.000  0.000  0.000  0.000  0.063
    4  0.029  0.011  0.011  0.011  0.000  0.000  0.000  0.000  0.000  0.062
tot    0.125  0.041  0.041  0.042  0.000  0.000  0.000  0.000  0.000  0.249
    1  0.024  0.008  0.008  0.008  0.000  0.000  0.000  0.000  0.000  0.048
    2  0.026  0.007  0.007  0.008  0.000  0.000  0.000  0.000  0.000  0.049
    3  0.025  0.008  0.008  0.008  0.000  0.000  0.000  0.000  0.000  0.049
    4  0.023  0.009  0.009  0.009  0.000  0.000  0.000  0.000  0.000  0.048
tot    0.098  0.032  0.032  0.033  0.000  0.000  0.000  0.000  0.000  0.194
    1  0.026  0.008  0.008  0.009  0.000  0.000  0.000  0.000  0.000  0.051
    2  0.028  0.008  0.008  0.008  0.000  0.000  0.000  0.000  0.000  0.052
    3  0.026  0.009  0.009  0.009  0.000  0.000  0.000  0.000  0.000  0.052
    4  0.024  0.009  0.009  0.009  0.000  0.000  0.000  0.000  0.000  0.051
tot    0.104  0.034  0.034  0.035  0.000  0.000  0.000  0.000  0.000  0.206

band     6 # energy   -1.13389217 # occ.  1.00000000

ion      s     py     pz     px    dxy    dyz    dz2    dxz  x2-y2    tot
    1  0.047  0.015  0.015  0.016  0.000  0.000  0.000  0.000  0.000  0.093
    2  0.051  0.014  0.014  0.015  0.000  0.000  0.000  0.000  0.000  0.095
    3  0.048  0.016  0.016  0.016  0.000  0.000  0.000  0.000  0.000  0.096
    4  0.044  0.017  0.017  0.017  0.000  0.000  0.000  0.000  0.000  0.094
tot    0.190  0.062  0.062  0.064  0.000  0.000  0.000  0.000  0.000  0.377
    1 -0.031 -0.010 -0.010 -0.011  0.000  0.000  0.000  0.000  0.000 -0.061
    2 -0.034 -0.009 -0.009 -0.010  0.000  0.000  0.000  0.000  0.000 -0.063
    3 -0.032 -0.011 -0.011 -0.010  0.000  0.000  0.000  0.000  0.000 -0.063
    4 -0.029 -0.011 -0.011 -0.011  0.000  0.000  0.000  0.000  0.000 -0.062
tot   -0.125 -0.041 -0.041 -0.042  0.000  0.000  0.000  0.000  0.000 -0.249
    1 -0.024 -0.008 -0.008 -0.008  0.000  0.000  0.000  0.000  0.000 -0.048
    2 -0.026 -0.007 -0.007 -0.008  0.000  0.000  0.000  0.000  0.000 -0.049
    3 -0.025 -0.008 -0.008 -0.008  0.000  0.000  0.000  0.000  0.000 -0.049
    4 -0.023 -0.009 -0.009 -0.009  0.000  0.000  0.000  0.000  0.000 -0.048
tot   -0.098 -0.032 -0.032 -0.033  0.000  0.000  0.000  0.000  0.000 -0.194
    1 -0.026 -0.008 -0.008 -0.009  0.000  0.000  0.000  0.000  0.000 -0.051
    2 -0.028 -0.008 -0.008 -0.008  0.000  0.000  0.000  0.000  0.000 -0.052
    3 -0.026 -0.009 -0.009 -0.009  0.000  0.000  0.000  0.000  0.000 -0.052
    4 -0.024 -0.009 -0.009 -0.009  0.000  0.000  0.000  0.000  0.000 -0.051
tot   -0.104 -0.034 -0.034 -0.035  0.000  0.000  0.000  0.000  0.000 -0.206

band     7 # energy    4.22848849 # occ.  1.00000000

ion      s     py     pz     px    dxy    dyz    dz2    dxz  x2-y2    tot
    1  0.000  0.078  0.078  0.000  0.000  0.000  0.000  0.000  0.000  0.157
    2  0.000  0.031  0.031  0.000  0.000  0.000  0.000  0.000  0.000  0.063
    3  0.000  0.034  0.034  0.000  0.000  0.000  0.000  0.000  0.000  0.067
    4  0.000  0.081  0.081  0.000  0.000  0.000  0.000  0.000  0.000  0.162
tot    0.000  0.224  0.224  0.001  0.000  0.000  0.000  0.000  0.000  0.449
    1 -0.000 -0.047 -0.047  0.000  0.000  0.000  0.000  0.000  0.000 -0.093
    2 -0.000 -0.019 -0.019  0.000  0.000  0.000  0.000  0.000  0.000 -0.037
    3  0.000 -0.020 -0.020  0.000  0.000  0.000  0.000  0.000  0.000 -0.040
    4 -0.000 -0.048 -0.048  0.000  0.000  0.000  0.000  0.000  0.000 -0.096
tot   -0.000 -0.134 -0.133  0.001  0.000  0.000  0.000  0.000  0.000 -0.267
    1  0.000 -0.044 -0.048  0.000  0.000  0.000  0.000  0.000  0.000 -0.092
    2  0.000 -0.017 -0.020  0.000  0.000  0.000  0.000  0.000  0.000 -0.037
    3 -0.000 -0.018 -0.021  0.000  0.000  0.000  0.000  0.000  0.000 -0.039
    4 -0.000 -0.045 -0.050  0.000  0.000  0.000  0.000  0.000  0.000 -0.095
tot    0.000 -0.123 -0.139  0.000  0.000  0.000  0.000  0.000  0.000 -0.263
    1  0.000 -0.045 -0.040  0.000  0.000  0.000  0.000  0.000  0.000 -0.086
    2  0.000 -0.019 -0.016  0.000  0.000  0.000  0.000  0.000  0.000 -0.034
    3 -0.000 -0.020 -0.017  0.000  0.000  0.000  0.000  0.000  0.000 -0.037
    4 -0.000 -0.047 -0.042  0.000  0.000  0.000  0.000  0.000  0.000 -0.088
tot    0.000 -0.131 -0.114  0.000  0.000  0.000  0.000  0.000  0.000 -0.245

band     8 # energy    4.22849442 # occ.  1.00000000

ion      s     py     pz     px    dxy    dyz    dz2    dxz  x2-y2    tot
    1  0.000  0.078  0.078  0.000  0.000  0.000  0.000  0.000  0.000  0.157
    2  0.000  0.031  0.031  0.000  0.000  0.000  0.000  0.000  0.000  0.063
    3  0.000  0.034  0.034  0.000  0.000  0.000  0.000  0.000  0.000  0.067
    4  0.000  0.081  0.081  0.000  0.000  0.000  0.000  0.000  0.000  0.162
tot    0.000  0.224  0.224  0.001  0.000  0.000  0.000  0.000  0.000  0.449
    1  0.000  0.047  0.047 -0.000  0.000  0.000  0.000  0.000  0.000  0.093
    2  0.000  0.019  0.019 -0.000  0.000  0.000  0.000  0.000  0.000  0.037
    3 -0.000  0.020  0.020 -0.000  0.000  0.000  0.000  0.000  0.000  0.040
    4  0.000  0.048  0.048 -0.000  0.000  0.000  0.000  0.000  0.000  0.096
tot    0.000  0.134  0.133 -0.001  0.000  0.000  0.000  0.000  0.000  0.267
    1 -0.000  0.044  0.048 -0.000  0.000  0.000  0.000  0.000  0.000  0.092
    2 -0.000  0.017  0.020 -0.000  0.000  0.000  0.000  0.000  0.000  0.037
    3  0.000  0.018  0.021 -0.000  0.000  0.000  0.000  0.000  0.000  0.039
    4  0.000  0.045  0.050 -0.000  0.000  0.000  0.000  0.000  0.000  0.095
tot   -0.000  0.123  0.139 -0.000  0.000  0.000  0.000  0.000  0.000  0.263
    1 -0.000  0.045  0.040 -0.000  0.000  0.000  0.000  0.000  0.000  0.086
    2 -0.000  0.019  0.016 -0.000  0.000  0.000  0.000  0.000  0.000  0.034
    3  0.000  0.020  0.017 -0.000  0.000  0.000  0.000  0.000  0.000  0.037
    4  0.000  0.047  0.042 -0.000  0.000  0.000  0.000  0.000  0.000  0.088
tot   -0.000  0.131  0.114 -0.000  0.000  0.000  0.000  0.000  0.000  0.245

band     9 # energy    4.54798255 # occ.  1.00000000

ion      s     py     pz     px    dxy    dyz    dz2    dxz  x2-y2    tot
    1  0.000  0.015  0.015  0.067  0.000  0.000  0.000  0.000  0.000  0.097
    2  0.000  0.021  0.021  0.071  0.000  0.000  0.000  0.000  0.000  0.114
    3  0.000  0.022  0.022  0.076  0.000  0.000  0.000  0.000  0.000  0.119
    4  0.000  0.015  0.015  0.072  0.000  0.000  0.000  0.000  0.000  0.102
tot    0.000  0.073  0.073  0.286  0.000  0.000  0.000  0.000  0.000  0.432
    1 -0.000 -0.005 -0.005 -0.024  0.000  0.000  0.000  0.000  0.000 -0.033
    2 -0.000 -0.007 -0.007 -0.025  0.000  0.000  0.000  0.000  0.000 -0.040
    3 -0.000 -0.007 -0.008 -0.027  0.000  0.000  0.000  0.000  0.000 -0.042
    4 -0.000 -0.005 -0.005 -0.025  0.000  0.000  0.000  0.000  0.000 -0.035
tot   -0.000 -0.024 -0.025 -0.101  0.000  0.000  0.000  0.000  0.000 -0.151
    1 -0.000 -0.007 -0.011 -0.041  0.000  0.000  0.000  0.000  0.000 -0.060
    2 -0.000 -0.012 -0.015 -0.044  0.000  0.000  0.000  0.000  0.000 -0.071
    3 -0.000 -0.012 -0.015 -0.047  0.000  0.000  0.000  0.000  0.000 -0.074
    4 -0.000 -0.007 -0.011 -0.044  0.000  0.000  0.000  0.000  0.000 -0.063
tot   -0.000 -0.038 -0.052 -0.177  0.000  0.000  0.000  0.000  0.000 -0.267
    1 -0.000 -0.012 -0.008 -0.047  0.000  0.000  0.000  0.000  0.000 -0.068
    2 -0.000 -0.016 -0.014 -0.050  0.000  0.000  0.000  0.000  0.000 -0.080
    3 -0.000 -0.016 -0.014 -0.053  0.000  0.000  0.000  0.000  0.000 -0.084
    4 -0.000 -0.012 -0.008 -0.050  0.000  0.000  0.000  0.000  0.000 -0.071
tot   -0.000 -0.057 -0.045 -0.200  0.000  0.000  0.000  0.000  0.000 -0.302

band    10 # energy    4.54798546 # occ.  1.00000000

ion      s     py     pz     px    dxy    dyz    dz2    dxz  x2-y2    tot
    1  0.000  0.015  0.015  0.067  0.000  0.000  0.000  0.000  0.000  0.097
    2  0.000  0.021  0.021  0.071  0.000  0.000  0.000  0.000  0.000  0.114
    3  0.000  0.022  0.022  0.076  0.000  0.000  0.000  0.000  0.000  0.119
    4  0.000  0.015  0.015  0.072  0.000  0.000  0.000  0.000  0.000  0.102
tot    0.000  0.073  0.073  0.286  0.000  0.000  0.000  0.000  0.000  0.432
    1  0.000  0.005  0.005  0.024  0.000  0.000  0.000  0.000  0.000  0.033
    2  0.000  0.007  0.007  0.025  0.000  0.000  0.000  0.000  0.000  0.040
    3  0.000  0.007  0.008  0.027  0.000  0.000  0.000  0.000  0.000  0.042
    4  0.000  0.005  0.005  0.025  0.000  0.000  0.000  0.000  0.000  0.035
tot    0.000  0.024  0.025  0.101  0.000  0.000  0.000  0.000  0.000  0.151
    1  0.000  0.007  0.011  0.041  0.000  0.000  0.000  0.000  0.000  0.060
    2  0.000  0.012  0.015  0.044  0.000  0.000  0.000  0.000  0.000  0.071
    3  0.000  0.012  0.015  0.047  0.000  0.000  0.000  0.000  0.000  0.074
    4  0.000  0.007  0.011  0.044  0.000  0.000  0.000  0.000  0.000  0.063
tot    0.000  0.038  0.052  0.177  0.000  0.000  0.000  0.000  0.000  0.267
    1  0.000  0.012  0.008  0.047  0.000  0.000  0.000  0.000  0.000  0.068
    2  0.000  0.016  0.014  0.050  0.000  0.000  0.000  0.000  0.000  0.080
    3  0.000  0.016  0.014  0.053  0.000  0.000  0.000  0.000  0.000  0.084
    4  0.000  0.012  0.008  0.050  0.000  0.000  0.000  0.000  0.000  0.071
tot    0.000  0.057  0.045  0.200  0.000  0.000  0.000  0.000  0.000  0.302

band    11 # energy    5.44109070 # occ.  1.00000000

ion      s     py     pz     px    dxy    dyz    dz2    dxz  x2-y2    tot
    1  0.000  0.035  0.035  0.001  0.000  0.000  0.000  0.000  0.000  0.070
    2  0.000  0.076  0.076  0.001  0.000  0.000  0.000  0.000  0.000  0.154
    3  0.000  0.075  0.075  0.001  0.000  0.000  0.000  0.000  0.000  0.152
    4  0.000  0.033  0.033  0.001  0.000  0.000  0.000  0.000  0.000  0.067
tot    0.000  0.220  0.220  0.003  0.000  0.000  0.000  0.000  0.000  0.442
    1 -0.000 -0.018 -0.018  0.000  0.000  0.000  0.000  0.000  0.000 -0.036
    2 -0.000 -0.040 -0.040  0.000  0.000  0.000  0.000  0.000  0.000 -0.079
    3 -0.000 -0.039 -0.039  0.000  0.000  0.000  0.000  0.000  0.000 -0.078
    4  0.000 -0.017 -0.017  0.000  0.000  0.000  0.000  0.000  0.000 -0.034
tot   -0.000 -0.115 -0.115  0.001  0.000  0.000  0.000  0.000  0.000 -0.228
    1 -0.000 -0.019 -0.024 -0.000  0.000  0.000  0.000  0.000  0.000 -0.044
    2 -0.000 -0.045 -0.050 -0.000  0.000  0.000  0.000  0.000  0.000 -0.096
    3  0.000 -0.045 -0.050 -0.000  0.000  0.000  0.000  0.000  0.000 -0.095
    4  0.000 -0.019 -0.023 -0.000  0.000  0.000  0.000  0.000  0.000 -0.042
tot   -0.000 -0.128 -0.146 -0.002  0.000  0.000  0.000  0.000  0.000 -0.276
    1 -0.000 -0.022 -0.018 -0.000  0.000  0.000  0.000  0.000  0.000 -0.041
    2 -0.000 -0.047 -0.041 -0.000  0.000  0.000  0.000  0.000  0.000 -0.089
    3  0.000 -0.046 -0.041 -0.000  0.000  0.000  0.000  0.000  0.000 -0.088
    4  0.000 -0.021 -0.017 -0.000  0.000  0.000  0.000  0.000  0.000 -0.039
tot   -0.000 -0.137 -0.117 -0.002  0.000  0.000  0.000  0.000  0.000 -0.256

band    12 # energy    5.44109665 # occ.  1.00000000

ion      s     py     pz     px    dxy    dyz    dz2    dxz  x2-y2    tot
    1  0.000  0.035  0.035  0.001  0.000  0.000  0.000  0.000  0.000  0.070
    2  0.000  0.076  0.076  0.001  0.000  0.000  0.000  0.000  0.000  0.154
    3  0.000  0.075  0.075  0.001  0.000  0.000  0.000  0.000  0.000  0.152
    4  0.000  0.033  0.033  0.001  0.000  0.000  0.000  0.000  0.000  0.067
tot    0.000  0.220  0.220  0.003  0.000  0.000  0.000  0.000  0.000  0.442
    1  0.000  0.018  0.018 -0.000  0.000  0.000  0.000  0.000  0.000  0.036
    2  0.000  0.040  0.040 -0.000  0.000  0.000  0.000  0.000  0.000  0.079
    3  0.000  0.039  0.039 -0.000  0.000  0.000  0.000  0.000  0.000  0.078
    4 -0.000  0.017  0.017 -0.000  0.000  0.000  0.000  0.000  0.000  0.034
tot    0.000  0.115  0.115 -0.001  0.000  0.000  0.000  0.000  0.000  0.228
    1  0.000  0.019  0.024  0.000  0.000  0.000  0.000  0.000  0.000  0.044
    2  0.000  0.045  0.050  0.000  0.000  0.000  0.000  0.000  0.000  0.096
    3 -0.000  0.045  0.050  0.000  0.000  0.000  0.000  0.000  0.000  0.095
    4 -0.000  0.019  0.023  0.000  0.000  0.000  0.000  0.000  0.000  0.042
tot    0.000  0.128  0.146  0.002  0.000  0.000  0.000  0.000  0.000  0.276
    1  0.000  0.022  0.018  0.000  0.000  0.000  0.000  0.000  0.000  0.041
    2  0.000  0.047  0.041  0.000  0.000  0.000  0.000  0.000  0.000  0.089
    3 -0.000  0.046  0.041  0.000  0.000  0.000  0.000  0.000  0.000  0.088
    4 -0.000  0.021  0.017  0.000  0.000  0.000  0.000  0.000  0.000  0.039
tot    0.000  0.137  0.117  0.002  0.000  0.000  0.000  0.000  0.000  0.256

band    13 # energy    5.64008232 # occ.  1.00000000

ion      s     py     pz     px    dxy    dyz    dz2    dxz  x2-y2    tot
    1  0.000  0.000  0.000  0.112  0.000  0.000  0.000  0.000  0.000  0.113
    2  0.000  0.001  0.001  0.108  0.000  0.000  0.000  0.000  0.000  0.109
    3  0.000  0.001  0.001  0.103  0.000  0.000  0.000  0.000  0.000  0.105
    4  0.000  0.000  0.000  0.106  0.000  0.000  0.000  0.000  0.000  0.107
tot    0.000  0.002  0.002  0.429  0.000  0.000  0.000  0.000  0.000  0.434
    1 -0.000  0.000  0.000 -0.039  0.000  0.000  0.000  0.000  0.000 -0.038
    2 -0.000  0.000  0.000 -0.039  0.000  0.000  0.000  0.000  0.000 -0.038
    3 -0.000  0.000  0.000 -0.037  0.000  0.000  0.000  0.000  0.000 -0.037
    4 -0.000  0.000  0.000 -0.037  0.000  0.000  0.000  0.000  0.000 -0.037
tot   -0.000  0.001  0.001 -0.151  0.000  0.000  0.000  0.000  0.000 -0.150
    1 -0.000 -0.000  0.000 -0.069  0.000  0.000  0.000  0.000  0.000 -0.069
    2 -0.000 -0.001  0.000 -0.066  0.000  0.000  0.000  0.000  0.000 -0.067
    3 -0.000 -0.001  0.000 -0.063  0.000  0.000  0.000  0.000  0.000 -0.064
    4 -0.000 -0.000  0.000 -0.065  0.000  0.000  0.000  0.000  0.000 -0.065
tot   -0.000 -0.002  0.001 -0.264  0.000  0.000  0.000  0.000  0.000 -0.265
    1 -0.000  0.000 -0.000 -0.079  0.000  0.000  0.000  0.000  0.000 -0.079
    2 -0.000  0.000 -0.001 -0.076  0.000  0.000  0.000  0.000  0.000 -0.076
    3 -0.000  0.000 -0.001 -0.073  0.000  0.000  0.000  0.000  0.000 -0.073
    4 -0.000  0.000 -0.000 -0.075  0.000  0.000  0.000  0.000  0.000 -0.075
tot   -0.000  0.001 -0.002 -0.302  0.000  0.000  0.000  0.000  0.000 -0.303

band    14 # energy    5.64008645 # occ.  1.00000000

ion      s     py     pz     px    dxy    dyz    dz2    dxz  x2-y2    tot
    1  0.000  0.000  0.000  0.112  0.000  0.000  0.000  0.000  0.000  0.113
    2  0.000  0.001  0.001  0.108  0.000  0.000  0.000  0.000  0.000  0.109
    3  0.000  0.001  0.001  0.103  0.000  0.000  0.000  0.000  0.000  0.105
    4  0.000  0.000  0.000  0.106  0.000  0.000  0.000  0.000  0.000  0.107
tot    0.000  0.002  0.002  0.429  0.000  0.000  0.000  0.000  0.000  0.434
    1  0.000 -0.000 -0.000  0.039  0.000  0.000  0.000  0.000  0.000  0.038
    2  0.000 -0.000 -0.000  0.039  0.000  0.000  0.000  0.000  0.000  0.038
    3  0.000 -0.000 -0.000  0.037  0.000  0.000  0.000  0.000  0.000  0.037
    4  0.000 -0.000 -0.000  0.037  0.000  0.000  0.000  0.000  0.000  0.037
tot    0.000 -0.001 -0.001  0.151  0.000  0.000  0.000  0.000  0.000  0.150
    1  0.000  0.000 -0.000  0.069  0.000  0.000  0.000  0.000  0.000  0.069
    2  0.000  0.001 -0.000  0.066  0.000  0.000  0.000  0.000  0.000  0.067
    3  0.000  0.001 -0.000  0.063  0.000  0.000  0.000  0.000  0.000  0.064
    4  0.000  0.000 -0.000  0.065  0.000  0.000  0.000  0.000  0.000  0.065
tot    0.000  0.002 -0.001  0.264  0.000  0.000  0.000  0.000  0.000  0.265
    1  0.000 -0.000  0.000  0.079  0.000  0.000  0.000  0.000  0.000  0.079
    2  0.000 -0.000  0.001  0.076  0.000  0.000  0.000  0.000  0.000  0.076
    3  0.000 -0.000  0.001  0.073  0.000  0.000  0.000  0.000  0.000  0.073
    4  0.000 -0.000  0.000  0.075  0.000  0.000  0.000  0.000  0.000  0.075
tot    0.000 -0.001  0.002  0.302  0.000  0.000  0.000  0.000  0.000  0.303

band    15 # energy    5.86769575 # occ.  1.00000388

ion      s     py     pz     px    dxy    dyz    dz2    dxz  x2-y2    tot
    1  0.000  0.054  0.054  0.001  0.000  0.000  0.000  0.000  0.000  0.110
    2  0.000  0.051  0.051  0.001  0.000  0.000  0.000  0.000  0.000  0.103
    3  0.000  0.051  0.051  0.001  0.000  0.000  0.000  0.000  0.000  0.102
    4  0.000  0.053  0.053  0.001  0.000  0.000  0.000  0.000  0.000  0.107
tot    0.001  0.209  0.209  0.003  0.000  0.000  0.000  0.000  0.000  0.422
    1 -0.000 -0.004 -0.004  0.000  0.000  0.000  0.000  0.000  0.000 -0.007
    2 -0.000 -0.003 -0.003 -0.001  0.000  0.000  0.000  0.000  0.000 -0.007
    3 -0.000 -0.003 -0.003 -0.000  0.000  0.000  0.000  0.000  0.000 -0.007
    4 -0.000 -0.004 -0.004  0.001  0.000  0.000  0.000  0.000  0.000 -0.007
tot   -0.000 -0.014 -0.014  0.000  0.000  0.000  0.000  0.000  0.000 -0.028
    1 -0.000 -0.048 -0.051  0.000  0.000  0.000  0.000  0.000  0.000 -0.100
    2 -0.000 -0.045 -0.048  0.000  0.000  0.000  0.000  0.000  0.000 -0.094
    3 -0.000 -0.045 -0.048  0.000  0.000  0.000  0.000  0.000  0.000 -0.092
    4 -0.000 -0.047 -0.050 -0.000  0.000  0.000  0.000  0.000  0.000 -0.098
tot   -0.001 -0.186 -0.197  0.000  0.000  0.000  0.000  0.000  0.000 -0.383
    1 -0.000 -0.024 -0.019  0.000  0.000  0.000  0.000  0.000  0.000 -0.043
    2 -0.000 -0.024 -0.017  0.000  0.000  0.000  0.000  0.000  0.000 -0.040
    3 -0.000 -0.024 -0.016  0.000  0.000  0.000  0.000  0.000  0.000 -0.040
    4 -0.000 -0.024 -0.018  0.000  0.000  0.000  0.000  0.000  0.000 -0.042
tot   -0.000 -0.095 -0.070  0.001  0.000  0.000  0.000  0.000  0.000 -0.164

band    16 # energy    5.86769751 # occ.  0.99999611

ion      s     py     pz     px    dxy    dyz    dz2    dxz  x2-y2    tot
    1  0.000  0.054  0.054  0.001  0.000  0.000  0.000  0.000  0.000  0.110
    2  0.000  0.051  0.051  0.001  0.000  0.000  0.000  0.000  0.000  0.103
    3  0.000  0.051  0.051  0.001  0.000  0.000  0.000  0.000  0.000  0.102
    4  0.000  0.053  0.053  0.001  0.000  0.000  0.000  0.000  0.000  0.107
tot    0.001  0.209  0.209  0.003  0.000  0.000  0.000  0.000  0.000  0.422
    1  0.000  0.004  0.004 -0.000  0.000  0.000  0.000  0.000  0.000  0.007
    2  0.000  0.003  0.003  0.001  0.000  0.000  0.000  0.000  0.000  0.007
    3  0.000  0.003  0.003  0.000  0.000  0.000  0.000  0.000  0.000  0.007
    4  0.000  0.004  0.004 -0.001  0.000  0.000  0.000  0.000  0.000  0.007
tot    0.000  0.014  0.014 -0.000  0.000  0.000  0.000  0.000  0.000  0.028
    1  0.000  0.048  0.051 -0.000  0.000  0.000  0.000  0.000  0.000  0.100
    2  0.000  0.045  0.048 -0.000  0.000  0.000  0.000  0.000  0.000  0.094
    3  0.000  0.045  0.048 -0.000  0.000  0.000  0.000  0.000  0.000  0.092
    4  0.000  0.047  0.050  0.000  0.000  0.000  0.000  0.000  0.000  0.098
tot    0.001  0.186  0.197 -0.000  0.000  0.000  0.000  0.000  0.000  0.383
    1  0.000  0.024  0.019 -0.000  0.000  0.000  0.000  0.000  0.000  0.043
    2  0.000  0.024  0.017 -0.000  0.000  0.000  0.000  0.000  0.000  0.040
    3  0.000  0.024  0.016 -0.000  0.000  0.000  0.000  0.000  0.000  0.040
    4  0.000  0.024  0.018 -0.000  0.000  0.000  0.000  0.000  0.000  0.042
tot    0.000  0.095  0.070 -0.001  0.000  0.000  0.000  0.000  0.000  0.164

band    17 # energy    7.04844593 # occ. -0.00000000

ion      s     py     pz     px    dxy    dyz    dz2    dxz  x2-y2    tot
    1  0.103  0.006  0.006  0.002  0.000  0.000  0.000  0.000  0.000  0.116
    2  0.085  0.001  0.001  0.003  0.000  0.000  0.000  0.000  0.000  0.089
    3  0.086  0.003  0.003  0.003  0.000  0.000  0.000  0.000  0.000  0.095
    4  0.105  0.009  0.009  0.002  0.000  0.000  0.000  0.000  0.000  0.126
tot    0.379  0.019  0.019  0.010  0.000  0.000  0.000  0.000  0.000  0.426
    1  0.060  0.003  0.003  0.001  0.000  0.000  0.000  0.000  0.000  0.068
    2  0.050  0.000  0.000  0.001  0.000  0.000  0.000  0.000  0.000  0.052
    3  0.051  0.002  0.002  0.002  0.000  0.000  0.000  0.000  0.000  0.056
    4  0.062  0.006  0.006  0.001  0.000  0.000  0.000  0.000  0.000  0.074
tot    0.222  0.011  0.011  0.006  0.000  0.000  0.000  0.000  0.000  0.250
    1  0.059  0.003  0.003  0.001  0.000  0.000  0.000  0.000  0.000  0.067
    2  0.048  0.000  0.000  0.001  0.000  0.000  0.000  0.000  0.000  0.051
    3  0.049  0.002  0.002  0.002  0.000  0.000  0.000  0.000  0.000  0.054
    4  0.060  0.005  0.005  0.001  0.000  0.000  0.000  0.000  0.000  0.072
tot    0.217  0.011  0.011  0.006  0.000  0.000  0.000  0.000  0.000  0.244
    1  0.059  0.003  0.003  0.001  0.000  0.000  0.000  0.000  0.000  0.066
    2  0.048  0.000  0.000  0.001  0.000  0.000  0.000  0.000  0.000  0.051
    3  0.049  0.002  0.002  0.002  0.000  0.000  0.000  0.000  0.000  0.054
    4  0.060  0.005  0.005  0.001  0.000  0.000  0.000  0.000  0.000  0.072
tot    0.217  0.011  0.011  0.006  0.000  0.000  0.000  0.000  0.000  0.244

band    18 # energy    7.04845903 # occ. -0.00000000

ion      s     py     pz     px    dxy    dyz    dz2    dxz  x2-y2    tot
    1  0.103  0.006  0.006  0.002  0.000  0.000  0.000  0.000  0.000  0.116
    2  0.085  0.001  0.001  0.003  0.000  0.000  0.000  0.000  0.000  0.089
    3  0.086  0.003  0.003  0.003  0.000  0.000  0.000  0.000  0.000  0.095
    4  0.105  0.009  0.009  0.002  0.000  0.000  0.000  0.000  0.000  0.126
tot    0.379  0.019  0.019  0.010  0.000  0.000  0.000  0.000  0.000  0.426
    1 -0.060 -0.003 -0.003 -0.001  0.000  0.000  0.000  0.000  0.000 -0.068
    2 -0.050 -0.000 -0.000 -0.001  0.000  0.000  0.000  0.000  0.000 -0.052
    3 -0.051 -0.002 -0.002 -0.002  0.000  0.000  0.000  0.000  0.000 -0.056
    4 -0.062 -0.006 -0.006 -0.001  0.000  0.000  0.000  0.000  0.000 -0.074
tot   -0.222 -0.011 -0.011 -0.006  0.000  0.000  0.000  0.000  0.000 -0.250
    1 -0.059 -0.003 -0.003 -0.001  0.000  0.000  0.000  0.000  0.000 -0.067
    2 -0.048 -0.000 -0.000 -0.001  0.000  0.000  0.000  0.000  0.000 -0.051
    3 -0.049 -0.002 -0.002 -0.002  0.000  0.000  0.000  0.000  0.000 -0.054
    4 -0.060 -0.005 -0.005 -0.001  0.000  0.000  0.000  0.000  0.000 -0.072
tot   -0.217 -0.011 -0.011 -0.006  0.000  0.000  0.000  0.000  0.000 -0.244
    1 -0.059 -0.003 -0.003 -0.001  0.000  0.000  0.000  0.000  0.000 -0.066
    2 -0.048 -0.000 -0.000 -0.001  0.000  0.000  0.000  0.000  0.000 -0.051
    3 -0.049 -0.002 -0.002 -0.002  0.000  0.000  0.000  0.000  0.000 -0.054
    4 -0.060 -0.005 -0.005 -0.001  0.000  0.000  0.000  0.000  0.000 -0.072
tot   -0.217 -0.011 -0.011 -0.006  0.000  0.000  0.000  0.000  0.000 -0.244

band    19 # energy    8.03345646 # occ.  0.00000000

ion      s     py     pz     px    dxy    dyz    dz2    dxz  x2-y2    tot