PROCAR lm decomposed
# of k-points:   48         # of bands:   20         # of ions:    2

 k-point     1 :    0.00000000 0.00000000 0.00000000     weight = 0.02083333

band     1 # energy  -14.14851799 # occ.  2.00000000

ion      s     py     pz     px    dxy    dyz    dz2    dxz  x2-y2    tot
    1  0.041  0.000  0.000  0.000  0.000  0.000  0.000  0.000  0.000  0.041
    2  0.678  0.000  0.000  0.000  0.000  0.000  0.000  0.000  0.000  0.678
tot    0.719  0.000  0.000  0.000  0.000  0.000  0.000  0.000  0.000  0.719

band     2 # energy    2.95285623 # occ.  1.94767298

ion      s     py     pz     px    dxy    dyz    dz2    dxz  x2-y2    tot
    1  0.000  0.005  0.005  0.005  0.000  0.000  0.000  0.000  0.000  0.016
    2  0.000  0.249  0.249  0.249  0.000  0.000  0.000  0.000  0.000  0.747
tot    0.000  0.255  0.254  0.255  0.000  0.000  0.000  0.000  0.000  0.763

band     3 # energy    2.95325456 # occ.  1.94269897

ion      s     py     pz     px    dxy    dyz    dz2    dxz  x2-y2    tot
    1  0.000  0.009  0.000  0.008  0.000  0.000  0.000  0.000  0.000  0.016
    2  0.000  0.394  0.003  0.350  0.000  0.000  0.000  0.000  0.000  0.747
tot    0.000  0.403  0.003  0.357  0.000  0.000  0.000  0.000  0.000  0.764

band     4 # energy    2.95325456 # occ.  1.94269897

ion      s     py     pz     px    dxy    dyz    dz2    dxz  x2-y2    tot
    1  0.000  0.002  0.011  0.003  0.000  0.000  0.000  0.000  0.000  0.016
    2  0.000  0.104  0.495  0.148  0.000  0.000  0.000  0.000  0.000  0.747
tot    0.000  0.106  0.506  0.152  0.000  0.000  0.000  0.000  0.000  0.764

band     5 # energy    7.38213258 # occ.  0.00000000

ion      s     py     pz     px    dxy    dyz    dz2    dxz  x2-y2    tot
    1  0.238  0.000  0.000  0.000  0.000  0.000  0.000  0.000  0.000  0.238
    2  0.253  0.000  0.000  0.000  0.000  0.000  0.000  0.000  0.000  0.253
tot    0.491  0.000  0.000  0.000  0.000  0.000  0.000  0.000  0.000  0.491

band     6 # energy   18.57859517 # occ.  0.00000000

ion      s     py     pz     px    dxy    dyz    dz2    dxz  x2-y2    tot
    1  0.000  0.000  0.000  0.000  0.000  0.147  0.000  0.147  0.000  0.293
    2  0.000  0.000  0.000  0.000  0.000  0.000  0.000  0.000  0.000  0.000
tot    0.000  0.000  0.000  0.000  0.000  0.147  0.000  0.147  0.000  0.293

band     7 # energy   18.57859520 # occ.  0.00000000

ion      s     py     pz     px    dxy    dyz    dz2    dxz  x2-y2    tot
    1  0.000  0.000  0.000  0.000  0.203  0.045  0.000  0.045  0.000  0.293
    2  0.000  0.000  0.000  0.000  0.000  0.000  0.000  0.000  0.000  0.000
tot    0.000  0.000  0.000  0.000  0.203  0.045  0.000  0.045  0.000  0.293

band     8 # energy   18.57859567 # occ.  0.00000000

ion      s     py     pz     px    dxy    dyz    dz2    dxz  x2-y2    tot
    1  0.000  0.000  0.000  0.000  0.091  0.101  0.000  0.101  0.000  0.293
    2  0.000  0.000  0.000  0.000  0.000  0.000  0.000  0.000  0.000  0.000
tot    0.000  0.000  0.000  0.000  0.091  0.101  0.000  0.101  0.000  0.293

band     9 # energy   22.41131902 # occ.  0.00000000

ion      s     py     pz     px    dxy    dyz    dz2    dxz  x2-y2    tot
    1  0.000  0.000  0.000  0.000  0.000  0.000  0.000  0.000  0.000  0.000
    2  0.000  0.000  0.000  0.000  0.000  0.000  0.000  0.000  0.000  0.000
tot    0.000  0.000  0.000  0.000  0.000  0.000  0.000  0.000  0.000  0.000

band    10 # energy   24.15092118 # occ.  0.00000000

ion      s     py     pz     px    dxy    dyz    dz2    dxz  x2-y2    tot
    1  0.000  0.000  0.000  0.000  0.000  0.000  0.506  0.000  0.000  0.506
    2  0.000  0.000  0.000  0.000  0.000  0.000  0.000  0.000  0.000  0.000
tot    0.000  0.000  0.000  0.000  0.000  0.000  0.506  0.000  0.000  0.506

band    11 # energy   24.15092121 # occ.  0.00000000

ion      s     py     pz     px    dxy    dyz    dz2    dxz  x2-y2    tot
    1  0.000  0.000  0.000  0.000  0.000  0.000  0.000  0.000  0.506  0.506
    2  0.000  0.000  0.000  0.000  0.000  0.000  0.000  0.000  0.000  0.000
tot    0.000  0.000  0.000  0.000  0.000  0.000  0.000  0.000  0.506  0.506

band    12 # energy   26.60230664 # occ.  0.00000000

ion      s     py     pz     px    dxy    dyz    dz2    dxz  x2-y2    tot
    1  0.000  0.195  0.195  0.195  0.000  0.000  0.000  0.000  0.000  0.586
    2  0.000  0.015  0.015  0.015  0.000  0.000  0.000  0.000  0.000  0.045
tot    0.000  0.210  0.210  0.210  0.000  0.000  0.000  0.000  0.000  0.631

band    13 # energy   26.60240690 # occ.  0.00000000

ion      s     py     pz     px    dxy    dyz    dz2    dxz  x2-y2    tot
    1  0.000  0.098  0.391  0.098  0.000  0.000  0.000  0.000  0.000  0.586
    2  0.000  0.007  0.030  0.007  0.000  0.000  0.000  0.000  0.000  0.045
tot    0.000  0.105  0.420  0.105  0.000  0.000  0.000  0.000  0.000  0.631

band    14 # energy   26.60240712 # occ.  0.00000000

ion      s     py     pz     px    dxy    dyz    dz2    dxz  x2-y2    tot
    1  0.000  0.293  0.000  0.293  0.000  0.000  0.000  0.000  0.000  0.586
    2  0.000  0.022  0.000  0.022  0.000  0.000  0.000  0.000  0.000  0.045
tot    0.000  0.315  0.000  0.315  0.000  0.000  0.000  0.000  0.000  0.631

band    15 # energy   40.61496478 # occ.  0.00000000

ion      s     py     pz     px    dxy    dyz    dz2    dxz  x2-y2    tot
    1  0.000  0.001  0.001  0.001  0.000  0.000  0.000  0.000  0.000  0.002
    2  0.000  0.084  0.084  0.084  0.000  0.000  0.000  0.000  0.000  0.252
tot    0.000  0.085  0.085  0.085  0.000  0.000  0.000  0.000  0.000  0.254

band    16 # energy   40.61611810 # occ.  0.00000000

ion      s     py     pz     px    dxy    dyz    dz2    dxz  x2-y2    tot
    1  0.000  0.001  0.000  0.001  0.000  0.000  0.000  0.000  0.000  0.002
    2  0.000  0.126  0.000  0.126  0.000  0.000  0.000  0.000  0.000  0.252
tot    0.000  0.127  0.000  0.127  0.000  0.000  0.000  0.000  0.000  0.254

band    17 # energy   40.61611819 # occ.  0.00000000

ion      s     py     pz     px    dxy    dyz    dz2    dxz  x2-y2    tot
    1  0.000  0.000  0.001  0.000  0.000  0.000  0.000  0.000  0.000  0.002
    2  0.000  0.042  0.168  0.042  0.000  0.000  0.000  0.000  0.000  0.252
tot    0.000  0.042  0.169  0.042  0.000  0.000  0.000  0.000  0.000  0.254

band    18 # energy   40.91933248 # occ.  0.00000000

ion      s     py     pz     px    dxy    dyz    dz2    dxz  x2-y2    tot
    1  0.479  0.000  0.000  0.000  0.000  0.000  0.000  0.000  0.000  0.479
    2  0.000  0.000  0.000  0.000  0.000  0.000  0.000  0.000  0.000  0.000
tot    0.479  0.000  0.000  0.000  0.000  0.000  0.000  0.000  0.000  0.479

band    19 # energy   52.20973312 # occ.  0.00000000

ion      s     py     pz     px    dxy    dyz    dz2    dxz  x2-y2    tot
    1  0.000  0.000  0.000  0.000  0.624  0.000  0.000  0.712  0.000  1.336
    2  0.000  0.000  0.000  0.000  0.000  0.000  0.000  0.000  0.000  0.000
tot    0.000  0.000  0.000  0.000  0.624  0.000  0.000  0.712  0.000  1.336

band    20 # energy   52.21011233 # occ.  0.00000000

ion      s     py     pz     px    dxy    dyz    dz2    dxz  x2-y2    tot
    1  0.000  0.005  0.001  0.005  0.525  0.349  0.000  0.455  0.000  1.339
    2  0.000  0.000  0.000  0.000  0.000  0.000  0.000  0.000  0.000  0.000
tot    0.000  0.005  0.001  0.005  0.525  0.349  0.000  0.455  0.000  1.339


 k-point     2 :    0.03846154 0.03846154 0.03846154     weight = 0.02083333

band     1 # energy  -14.13345375 # occ.  2.00000000

ion      s     py     pz     px    dxy    dyz    dz2    dxz  x2-y2    tot
    1  0.040  0.000  0.000  0.000  0.000  0.000  0.000  0.000  0.000  0.040
    2  0.679  0.000  0.000  0.000  0.000  0.000  0.000  0.000  0.000  0.679
tot    0.719  0.000  0.000  0.000  0.000  0.000  0.000  0.000  0.000  0.719

band     2 # energy    2.84442532 # occ.  2.00030440

ion      s     py     pz     px    dxy    dyz    dz2    dxz  x2-y2    tot
    1  0.006  0.005  0.005  0.005  0.000  0.000  0.000  0.000  0.000  0.022
    2  0.005  0.242  0.242  0.242  0.000  0.000  0.000  0.000  0.000  0.733
tot    0.011  0.248  0.248  0.248  0.000  0.000  0.000  0.000  0.000  0.754

band     3 # energy    2.94349238 # occ.  2.03243835

ion      s     py     pz     px    dxy    dyz    dz2    dxz  x2-y2    tot
    1  0.000  0.008  0.000  0.008  0.000  0.000  0.000  0.000  0.000  0.017
    2  0.000  0.373  0.000  0.373  0.000  0.000  0.000  0.000  0.000  0.746
tot    0.000  0.381  0.000  0.381  0.000  0.000  0.000  0.000  0.000  0.763

band     4 # energy    2.94349238 # occ.  2.03243835

ion      s     py     pz     px    dxy    dyz    dz2    dxz  x2-y2    tot
    1  0.000  0.003  0.011  0.003  0.000  0.000  0.000  0.000  0.000  0.017
    2  0.000  0.124  0.498  0.124  0.000  0.000  0.000  0.000  0.000  0.746
tot    0.000  0.127  0.508  0.127  0.000  0.000  0.000  0.000  0.000  0.763

band     5 # energy    7.48911555 # occ.  0.00000000

ion      s     py     pz     px    dxy    dyz    dz2    dxz  x2-y2    tot
    1  0.232  0.001  0.001  0.001  0.000  0.000  0.000  0.000  0.000  0.234
    2  0.246  0.006  0.006  0.006  0.000  0.000  0.000  0.000  0.000  0.264
tot    0.478  0.007  0.007  0.007  0.000  0.000  0.000  0.000  0.000  0.498

band     6 # energy   18.32062191 # occ.  0.00000000

ion      s     py     pz     px    dxy    dyz    dz2    dxz  x2-y2    tot
    1  0.000  0.002  0.002  0.002  0.089  0.089  0.000  0.089  0.000  0.273
    2  0.000  0.001  0.001  0.001  0.000  0.000  0.000  0.000  0.000  0.004
tot    0.000  0.003  0.003  0.003  0.089  0.089  0.000  0.089  0.000  0.277

band     7 # energy   18.61455912 # occ.  0.00000000

ion      s     py     pz     px    dxy    dyz    dz2    dxz  x2-y2    tot
    1  0.000  0.001  0.000  0.001  0.000  0.146  0.000  0.146  0.000  0.293
    2  0.000  0.001  0.000  0.001  0.000  0.000  0.000  0.000  0.000  0.001
tot    0.000  0.001  0.000  0.001  0.000  0.146  0.000  0.146  0.000  0.294

band     8 # energy   18.61455915 # occ.  0.00000000

ion      s     py     pz     px    dxy    dyz    dz2    dxz  x2-y2    tot
    1  0.000  0.000  0.001  0.000  0.195  0.049  0.000  0.049  0.000  0.293
    2  0.000  0.000  0.001  0.000  0.000  0.000  0.000  0.000  0.000  0.001
tot    0.000  0.000  0.002  0.000  0.195  0.049  0.000  0.049  0.000  0.294

band     9 # energy   22.73998871 # occ.  0.00000000

ion      s     py     pz     px    dxy    dyz    dz2    dxz  x2-y2    tot
    1  0.000  0.000  0.000  0.000  0.006  0.006  0.000  0.006  0.000  0.020
    2  0.000  0.000  0.000  0.000  0.000  0.000  0.000  0.000  0.000  0.000
tot    0.000  0.001  0.001  0.001  0.006  0.006  0.000  0.006  0.000  0.020

band    10 # energy   23.98493824 # occ.  0.00000000

ion      s     py     pz     px    dxy    dyz    dz2    dxz  x2-y2    tot
    1  0.000  0.008  0.033  0.008  0.000  0.000  0.454  0.000  0.000  0.503
    2  0.000  0.000  0.000  0.000  0.000  0.000  0.000  0.000  0.000  0.000
tot    0.000  0.008  0.033  0.008  0.000  0.000  0.454  0.000  0.000  0.504

band    11 # energy   23.98493829 # occ.  0.00000000

ion      s     py     pz     px    dxy    dyz    dz2    dxz  x2-y2    tot
    1  0.000  0.025  0.000  0.025  0.000  0.000  0.000  0.000  0.454  0.503
    2  0.000  0.000  0.000  0.000  0.000  0.000  0.000  0.000  0.000  0.000
tot    0.000  0.025  0.000  0.025  0.000  0.000  0.000  0.000  0.454  0.504

band    12 # energy   26.58996727 # occ.  0.00000000

ion      s     py     pz     px    dxy    dyz    dz2    dxz  x2-y2    tot
    1  0.008  0.190  0.190  0.190  0.004  0.004  0.000  0.004  0.000  0.588
    2  0.000  0.014  0.014  0.014  0.000  0.000  0.000  0.000  0.000  0.043
tot    0.008  0.204  0.204  0.204  0.004  0.004  0.000  0.004  0.000  0.630

band    13 # energy   26.82999456 # occ.  0.00000000

ion      s     py     pz     px    dxy    dyz    dz2    dxz  x2-y2    tot
    1  0.000  0.089  0.356  0.089  0.002  0.000  0.055  0.000  0.000  0.591
    2  0.000  0.008  0.031  0.008  0.000  0.000  0.000  0.000  0.000  0.046
tot    0.000  0.097  0.386  0.097  0.002  0.000  0.055  0.000  0.000  0.637

band    14 # energy   26.82999477 # occ.  0.00000000

ion      s     py     pz     px    dxy    dyz    dz2    dxz  x2-y2    tot
    1  0.000  0.267  0.000  0.267  0.000  0.001  0.000  0.001  0.055  0.591
    2  0.000  0.023  0.000  0.023  0.000  0.000  0.000  0.000  0.000  0.046
tot    0.000  0.290  0.000  0.290  0.000  0.001  0.000  0.001  0.055  0.637

band    15 # energy   40.11479753 # occ.  0.00000000

ion      s     py     pz     px    dxy    dyz    dz2    dxz  x2-y2    tot
    1  0.135  0.003  0.003  0.003  0.001  0.001  0.000  0.001  0.000  0.145
    2  0.002  0.059  0.059  0.059  0.000  0.000  0.000  0.000  0.000  0.178
tot    0.137  0.061  0.061  0.061  0.001  0.001  0.000  0.001  0.000  0.323

band    16 # energy   40.60572316 # occ.  0.00000000

ion      s     py     pz     px    dxy    dyz    dz2    dxz  x2-y2    tot
    1  0.000  0.001  0.000  0.001  0.000  0.001  0.000  0.001  0.000  0.003
    2  0.000  0.124  0.000  0.124  0.000  0.000  0.000  0.000  0.000  0.249
tot    0.000  0.125  0.000  0.125  0.000  0.001  0.000  0.001  0.000  0.252

band    17 # energy   40.60572325 # occ.  0.00000000

ion      s     py     pz     px    dxy    dyz    dz2    dxz  x2-y2    tot
    1  0.000  0.000  0.001  0.000  0.001  0.000  0.000  0.000  0.000  0.003
    2  0.000  0.041  0.166  0.041  0.000  0.000  0.000  0.000  0.000  0.249
tot    0.000  0.042  0.167  0.042  0.001  0.000  0.000  0.000  0.000  0.252

band    18 # energy   41.39278418 # occ.  0.00000000

ion      s     py     pz     px    dxy    dyz    dz2    dxz  x2-y2    tot
    1  0.337  0.001  0.001  0.001  0.001  0.001  0.000  0.001  0.000  0.342
    2  0.001  0.023  0.023  0.023  0.000  0.000  0.000  0.000  0.000  0.071
tot    0.337  0.024  0.024  0.024  0.001  0.001  0.000  0.001  0.000  0.412

band    19 # energy   51.89681844 # occ.  0.00000000

ion      s     py     pz     px    dxy    dyz    dz2    dxz  x2-y2    tot
    1  0.000  0.059  0.043  0.002  0.480  0.023  0.001  0.689  0.001  1.299
    2  0.000  0.001  0.001  0.000  0.000  0.000  0.000  0.000  0.000  0.002
tot    0.000  0.060  0.044  0.002  0.480  0.023  0.001  0.689  0.001  1.301

band    20 # energy   51.89756937 # occ.  0.00000000

ion      s     py     pz     px    dxy    dyz    dz2    dxz  x2-y2    tot
    1  0.000  0.020  0.044  0.062  0.282  0.820  0.001  0.076  0.001  1.307
    2  0.000  0.000  0.001  0.001  0.000  0.000  0.000  0.000  0.000  0.002
tot    0.000  0.020  0.045  0.063  0.282  0.820  0.001  0.076  0.001  1.309


 k-point     3 :    0.07692308 0.07692308 0.07692308     weight = 0.02083333

band     1 # energy  -14.08914222 # occ.  2.00000000

ion      s     py     pz     px    dxy    dyz    dz2    dxz  x2-y2    tot
    1  0.039  0.000  0.000  0.000  0.000  0.000  0.000  0.000  0.000  0.040
    2  0.681  0.000  0.000  0.000  0.000  0.000  0.000  0.000  0.000  0.681
tot    0.720  0.000  0.000  0.000  0.000  0.000  0.000  0.000  0.000  0.721

band     2 # energy    2.54786284 # occ.  2.00000000

ion      s     py     pz     px    dxy    dyz    dz2    dxz  x2-y2    tot
    1  0.019  0.004  0.004  0.004  0.000  0.000  0.000  0.000  0.000  0.033
    2  0.017  0.227  0.227  0.227  0.000  0.000  0.000  0.000  0.000  0.698
tot    0.036  0.231  0.231  0.231  0.000  0.000  0.000  0.000  0.000  0.732

band     3 # energy    2.91484308 # occ.  2.05505732

ion      s     py     pz     px    dxy    dyz    dz2    dxz  x2-y2    tot
    1  0.000  0.008  0.000  0.008  0.000  0.000  0.000  0.000  0.002  0.017
    2  0.000  0.372  0.000  0.372  0.000  0.000  0.000  0.000  0.000  0.744
tot    0.000  0.380  0.000  0.380  0.000  0.000  0.000  0.000  0.002  0.761

band     4 # energy    2.91484308 # occ.  2.05505732

ion      s     py     pz     px    dxy    dyz    dz2    dxz  x2-y2    tot
    1  0.000  0.003  0.010  0.003  0.000  0.000  0.002  0.000  0.000  0.017
    2  0.000  0.124  0.496  0.124  0.000  0.000  0.000  0.000  0.000  0.744
tot    0.000  0.127  0.506  0.127  0.000  0.000  0.002  0.000  0.000  0.761

band     5 # energy    7.77914993 # occ.  0.00000000

ion      s     py     pz     px    dxy    dyz    dz2    dxz  x2-y2    tot
    1  0.217  0.002  0.002  0.002  0.000  0.000  0.000  0.000  0.000  0.224
    2  0.230  0.020  0.020  0.020  0.000  0.000  0.000  0.000  0.000  0.290
tot    0.447  0.022  0.022  0.022  0.000  0.000  0.000  0.000  0.000  0.514

band     6 # energy   17.73633392 # occ.  0.00000000

ion      s     py     pz     px    dxy    dyz    dz2    dxz  x2-y2    tot
    1  0.001  0.005  0.005  0.005  0.075  0.075  0.000  0.075  0.000  0.241
    2  0.000  0.005  0.005  0.005  0.000  0.000  0.000  0.000  0.000  0.015
tot    0.001  0.010  0.010  0.010  0.075  0.075  0.000  0.075  0.000  0.256

band     7 # energy   18.71789689 # occ.  0.00000000

ion      s     py     pz     px    dxy    dyz    dz2    dxz  x2-y2    tot
    1  0.000  0.003  0.000  0.003  0.000  0.143  0.000  0.143  0.000  0.293
    2  0.000  0.002  0.000  0.002  0.000  0.000  0.000  0.000  0.000  0.004
tot    0.000  0.005  0.000  0.005  0.000  0.143  0.000  0.143  0.000  0.297

band     8 # energy   18.71789692 # occ.  0.00000000

ion      s     py     pz     px    dxy    dyz    dz2    dxz  x2-y2    tot
    1  0.000  0.001  0.004  0.001  0.191  0.048  0.000  0.048  0.000  0.293
    2  0.000  0.001  0.003  0.001  0.000  0.000  0.000  0.000  0.000  0.004
tot    0.000  0.002  0.007  0.002  0.191  0.048  0.000  0.048  0.000  0.297

band     9 # energy   23.50298508 # occ.  0.00000000

ion      s     py     pz     px    dxy    dyz    dz2    dxz  x2-y2    tot
    1  0.001  0.006  0.006  0.006  0.012  0.012  0.000  0.012  0.000  0.056
    2  0.000  0.001  0.001  0.001  0.000  0.000  0.000  0.000  0.000  0.004
tot    0.001  0.008  0.008  0.008  0.012  0.012  0.000  0.012  0.000  0.061

band    10 # energy   23.61740437 # occ.  0.00000000

ion      s     py     pz     px    dxy    dyz    dz2    dxz  x2-y2    tot
    1  0.000  0.021  0.085  0.021  0.002  0.001  0.366  0.001  0.000  0.496
    2  0.000  0.000  0.000  0.000  0.000  0.000  0.000  0.000  0.000  0.000
tot    0.000  0.021  0.085  0.021  0.002  0.001  0.366  0.001  0.000  0.496

band    11 # energy   23.61740444 # occ.  0.00000000

ion      s     py     pz     px    dxy    dyz    dz2    dxz  x2-y2    tot
    1  0.000  0.064  0.000  0.064  0.000  0.002  0.000  0.002  0.366  0.496
    2  0.000  0.000  0.000  0.000  0.000  0.000  0.000  0.000  0.000  0.000
tot    0.000  0.064  0.000  0.064  0.000  0.002  0.000  0.002  0.366  0.496

band    12 # energy   26.58856216 # occ.  0.00000000

ion      s     py     pz     px    dxy    dyz    dz2    dxz  x2-y2    tot
    1  0.030  0.170  0.170  0.170  0.015  0.015  0.000  0.015  0.000  0.587
    2  0.000  0.012  0.012  0.012  0.000  0.000  0.000  0.000  0.000  0.035
tot    0.030  0.182  0.182  0.182  0.015  0.015  0.000  0.015  0.000  0.623

band    13 # energy   27.38344694 # occ.  0.00000000

ion      s     py     pz     px    dxy    dyz    dz2    dxz  x2-y2    tot
    1  0.000  0.075  0.299  0.075  0.005  0.001  0.150  0.001  0.000  0.607
    2  0.000  0.008  0.033  0.008  0.000  0.000  0.000  0.000  0.000  0.050
tot    0.000  0.083  0.333  0.083  0.005  0.001  0.150  0.001  0.000  0.657

band    14 # energy   27.38344712 # occ.  0.00000000

ion      s     py     pz     px    dxy    dyz    dz2    dxz  x2-y2    tot
    1  0.000  0.224  0.000  0.224  0.000  0.004  0.000  0.004  0.150  0.607
    2  0.000  0.025  0.000  0.025  0.000  0.000  0.000  0.000  0.000  0.050
tot    0.000  0.249  0.000  0.249  0.000  0.004  0.000  0.004  0.150  0.657

band    15 # energy   39.43323543 # occ.  0.00000000

ion      s     py     pz     px    dxy    dyz    dz2    dxz  x2-y2    tot
    1  0.113  0.007  0.007  0.007  0.002  0.002  0.000  0.002  0.000  0.140
    2  0.007  0.057  0.057  0.057  0.000  0.000  0.000  0.000  0.000  0.179
tot    0.120  0.064  0.064  0.064  0.002  0.002  0.000  0.002  0.000  0.320

band    16 # energy   40.56848874 # occ.  0.00000000

ion      s     py     pz     px    dxy    dyz    dz2    dxz  x2-y2    tot
    1  0.000  0.001  0.000  0.001  0.000  0.003  0.000  0.003  0.001  0.008
    2  0.000  0.120  0.000  0.120  0.000  0.000  0.000  0.000  0.000  0.239
tot    0.000  0.120  0.000  0.120  0.000  0.003  0.000  0.003  0.001  0.247

band    17 # energy   40.56848883 # occ.  0.00000000

ion      s     py     pz     px    dxy    dyz    dz2    dxz  x2-y2    tot
    1  0.000  0.000  0.001  0.000  0.004  0.001  0.001  0.001  0.000  0.008
    2  0.000  0.040  0.159  0.040  0.000  0.000  0.000  0.000  0.000  0.239
tot    0.000  0.040  0.160  0.040  0.004  0.001  0.001  0.001  0.000  0.247

band    18 # energy   41.99351131 # occ.  0.00000000

ion      s     py     pz     px    dxy    dyz    dz2    dxz  x2-y2    tot
    1  0.336  0.005  0.005  0.005  0.004  0.004  0.000  0.004  0.000  0.362
    2  0.002  0.019  0.019  0.019  0.000  0.000  0.000  0.000  0.000  0.060
tot    0.338  0.024  0.024  0.024  0.004  0.004  0.000  0.004  0.000  0.423

band    19 # energy   51.05127125 # occ.  0.00000000

ion      s     py     pz     px    dxy    dyz    dz2    dxz  x2-y2    tot
    1  0.000  0.010  0.032  0.007  0.683  0.138  0.018  0.207  0.000  1.095
    2  0.000  0.001  0.004  0.001  0.000  0.000  0.000  0.000  0.000  0.006
tot    0.000  0.011  0.036  0.007  0.683  0.138  0.018  0.207  0.000  1.100

band    20 # energy   51.05127197 # occ.  0.00000000

ion      s     py     pz     px    dxy    dyz    dz2    dxz  x2-y2    tot
    1  0.000  0.023  0.000  0.026  0.002  0.547  0.000  0.479  0.018  1.095
    2  0.000  0.003  0.000  0.003  0.000  0.000  0.000  0.000  0.000  0.006
tot    0.000  0.025  0.000  0.029  0.002  0.547  0.000  0.479  0.018  1.100


 k-point     4 :    0.11538462 0.11538462 0.11538462     weight = 0.02083333

band     1 # energy  -14.01668639 # occ.  2.00000000

ion      s     py     pz     px    dxy    dyz    dz2    dxz  x2-y2    tot
    1  0.037  0.001  0.001  0.001  0.000  0.000  0.000  0.000  0.000  0.039
    2  0.685  0.000  0.000  0.000  0.000  0.000  0.000  0.000  0.000  0.686
tot    0.722  0.001  0.001  0.001  0.000  0.000  0.000  0.000  0.000  0.724

band     2 # energy    2.12728191 # occ.  2.00000000

ion      s     py     pz     px    dxy    dyz    dz2    dxz  x2-y2    tot
    1  0.034  0.004  0.004  0.004  0.001  0.001  0.000  0.001  0.000  0.047
    2  0.028  0.210  0.210  0.210  0.000  0.000  0.000  0.000  0.000  0.658
tot    0.063  0.213  0.213  0.213  0.001  0.001  0.000  0.001  0.000  0.705

band     3 # energy    2.86934241 # occ.  2.00338942

ion      s     py     pz     px    dxy    dyz    dz2    dxz  x2-y2    tot
    1  0.000  0.007  0.000  0.007  0.000  0.000  0.000  0.000  0.004  0.018
    2  0.000  0.370  0.000  0.370  0.000  0.000  0.000  0.000  0.000  0.740
tot    0.000  0.377  0.000  0.377  0.000  0.000  0.000  0.000  0.004  0.759

band     4 # energy    2.86934241 # occ.  2.00338943

ion      s     py     pz     px    dxy    dyz    dz2    dxz  x2-y2    tot
    1  0.000  0.002  0.009  0.002  0.000  0.000  0.004  0.000  0.000  0.018
    2  0.000  0.123  0.494  0.123  0.000  0.000  0.000  0.000  0.000  0.740
tot    0.000  0.126  0.503  0.126  0.000  0.000  0.004  0.000  0.000  0.759

band     5 # energy    8.18776444 # occ.  0.00000000

ion      s     py     pz     px    dxy    dyz    dz2    dxz  x2-y2    tot
    1  0.199  0.005  0.005  0.005  0.000  0.000  0.000  0.000  0.000  0.214
    2  0.212  0.034  0.034  0.034  0.000  0.000  0.000  0.000  0.000  0.314
tot    0.410  0.039  0.039  0.039  0.000  0.000  0.000  0.000  0.000  0.529

band     6 # energy   17.07245505 # occ.  0.00000000

ion      s     py     pz     px    dxy    dyz    dz2    dxz  x2-y2    tot
    1  0.002  0.008  0.008  0.008  0.063  0.063  0.000  0.063  0.000  0.217
    2  0.000  0.011  0.011  0.011  0.000  0.000  0.000  0.000  0.000  0.032
tot    0.002  0.019  0.019  0.019  0.063  0.063  0.000  0.063  0.000  0.248

band     7 # energy   18.87423685 # occ.  0.00000000

ion      s     py     pz     px    dxy    dyz    dz2    dxz  x2-y2    tot
    1  0.000  0.008  0.000  0.008  0.000  0.138  0.000  0.138  0.001  0.293
    2  0.000  0.004  0.000  0.004  0.000  0.000  0.000  0.000  0.000  0.009
tot    0.000  0.013  0.000  0.013  0.000  0.138  0.000  0.138  0.001  0.302

band     8 # energy   18.87423688 # occ.  0.00000000

ion      s     py     pz     px    dxy    dyz    dz2    dxz  x2-y2    tot
    1  0.000  0.003  0.011  0.003  0.184  0.046  0.001  0.046  0.000  0.293
    2  0.000  0.001  0.006  0.001  0.000  0.000  0.000  0.000  0.000  0.009
tot    0.000  0.004  0.017  0.004  0.184  0.046  0.001  0.046  0.000  0.302

band     9 # energy   23.22129597 # occ.  0.00000000

ion      s     py     pz     px    dxy    dyz    dz2    dxz  x2-y2    tot
    1  0.000  0.030  0.121  0.030  0.009  0.002  0.293  0.002  0.000  0.487
    2  0.000  0.000  0.000  0.000  0.000  0.000  0.000  0.000  0.000  0.000
tot    0.000  0.030  0.121  0.030  0.009  0.002  0.293  0.002  0.000  0.487

band    10 # energy   23.22129606 # occ.  0.00000000

ion      s     py     pz     px    dxy    dyz    dz2    dxz  x2-y2    tot
    1  0.000  0.091  0.000  0.091  0.000  0.007  0.000  0.007  0.293  0.487
    2  0.000  0.000  0.000  0.000  0.000  0.000  0.000  0.000  0.000  0.000
tot    0.000  0.091  0.000  0.091  0.000  0.007  0.000  0.007  0.293  0.487

band    11 # energy   24.30686199 # occ.  0.00000000

ion      s     py     pz     px    dxy    dyz    dz2    dxz  x2-y2    tot
    1  0.010  0.032  0.032  0.032  0.007  0.007  0.000  0.007  0.000  0.126
    2  0.000  0.006  0.006  0.006  0.000  0.000  0.000  0.000  0.000  0.017
tot    0.010  0.037  0.037  0.037  0.007  0.007  0.000  0.007  0.000  0.143

band    12 # energy   26.75464923 # occ.  0.00000000

ion      s     py     pz     px    dxy    dyz    dz2    dxz  x2-y2    tot
    1  0.055  0.126  0.126  0.126  0.039  0.039  0.000  0.039  0.000  0.548
    2  0.001  0.006  0.006  0.006  0.000  0.000  0.000  0.000  0.000  0.020
tot    0.055  0.132  0.132  0.132  0.039  0.039  0.000  0.039  0.000  0.568

band    13 # energy   28.09468281 # occ.  0.00000000

ion      s     py     pz     px    dxy    dyz    dz2    dxz  x2-y2    tot
    1  0.000  0.063  0.253  0.063  0.010  0.002  0.234  0.002  0.000  0.628
    2  0.000  0.010  0.039  0.010  0.000  0.000  0.000  0.000  0.000  0.058
tot    0.000  0.073  0.292  0.073  0.010  0.002  0.234  0.002  0.000  0.686

band    14 # energy   28.09468298 # occ.  0.00000000

ion      s     py     pz     px    dxy    dyz    dz2    dxz  x2-y2    tot
    1  0.000  0.190  0.000  0.190  0.000  0.007  0.000  0.007  0.234  0.628
    2  0.000  0.029  0.000  0.029  0.000  0.000  0.000  0.000  0.000  0.058
tot    0.000  0.219  0.000  0.219  0.000  0.007  0.000  0.007  0.234  0.686

band    15 # energy   38.71119062 # occ.  0.00000000

ion      s     py     pz     px    dxy    dyz    dz2    dxz  x2-y2    tot
    1  0.082  0.012  0.012  0.012  0.003  0.003  0.000  0.003  0.000  0.127
    2  0.015  0.055  0.055  0.055  0.000  0.000  0.000  0.000  0.000  0.181
tot    0.097  0.067  0.067  0.067  0.003  0.003  0.000  0.003  0.000  0.308

band    16 # energy   40.48655547 # occ.  0.00000000

ion      s     py     pz     px    dxy    dyz    dz2    dxz  x2-y2    tot
    1  0.000  0.001  0.000  0.001  0.000  0.008  0.000  0.008  0.003  0.019
    2  0.000  0.111  0.000  0.111  0.000  0.000  0.000  0.000  0.000  0.221
tot    0.000  0.111  0.000  0.111  0.000  0.008  0.000  0.008  0.003  0.240

band    17 # energy   40.48655554 # occ.  0.00000000

ion      s     py     pz     px    dxy    dyz    dz2    dxz  x2-y2    tot
    1  0.000  0.000  0.001  0.000  0.010  0.003  0.003  0.003  0.000  0.019
    2  0.000  0.037  0.147  0.037  0.000  0.000  0.000  0.000  0.000  0.221
tot    0.000  0.037  0.148  0.037  0.010  0.003  0.003  0.003  0.000  0.240

band    18 # energy   42.64199047 # occ.  0.00000000

ion      s     py     pz     px    dxy    dyz    dz2    dxz  x2-y2    tot
    1  0.333  0.012  0.012  0.012  0.010  0.010  0.000  0.010  0.000  0.399
    2  0.004  0.014  0.014  0.014  0.000  0.000  0.000  0.000  0.000  0.045
tot    0.338  0.026  0.026  0.026  0.010  0.010  0.000  0.010  0.000  0.444

band    19 # energy   49.85234023 # occ.  0.00000000

ion      s     py     pz     px    dxy    dyz    dz2    dxz  x2-y2    tot
    1  0.000  0.006  0.019  0.004  0.546  0.111  0.041  0.165  0.000  0.890
    2  0.000  0.003  0.009  0.002  0.000  0.000  0.000  0.000  0.000  0.014
tot    0.000  0.008  0.028  0.006  0.546  0.111  0.041  0.165  0.000  0.904

band    20 # energy   49.85234037 # occ.  0.00000000

ion      s     py     pz     px    dxy    dyz    dz2    dxz  x2-y2    tot
    1  0.000  0.013  0.000  0.015  0.002  0.437  0.000  0.383  0.041  0.890
    2  0.000  0.006  0.000  0.007  0.000  0.000  0.000  0.000  0.000  0.014
tot    0.000  0.019  0.000  0.022  0.002  0.437  0.000  0.383  0.041  0.904


 k-point     5 :    0.15384615 0.15384615 0.15384615     weight = 0.02083333

band     1 # energy  -13.91890302 # occ.  2.00000000

ion      s     py     pz     px    dxy    dyz    dz2    dxz  x2-y2    tot
    1  0.034  0.001  0.001  0.001  0.000  0.000  0.000  0.000  0.000  0.037
    2  0.692  0.000  0.000  0.000  0.000  0.000  0.000  0.000  0.000  0.692
tot    0.725  0.001  0.001  0.001  0.000  0.000  0.000  0.000  0.000  0.729

band     2 # energy    1.63858772 # occ.  2.00000000

ion      s     py     pz     px    dxy    dyz    dz2    dxz  x2-y2    tot
    1  0.048  0.003  0.003  0.003  0.001  0.001  0.000  0.001  0.000  0.059
    2  0.036  0.194  0.194  0.194  0.000  0.000  0.000  0.000  0.000  0.619
tot    0.084  0.197  0.197  0.197  0.001  0.001  0.000  0.001  0.000  0.679

band     3 # energy    2.81045482 # occ.  2.00000472

ion      s     py     pz     px    dxy    dyz    dz2    dxz  x2-y2    tot
    1  0.000  0.006  0.000  0.006  0.000  0.000  0.000  0.000  0.006  0.020