PROCAR lm decomposed
# of k-points:   25         # of bands:   14         # of ions:    4

 k-point     1 :    0.00000000 0.00000000 0.00000000     weight = 0.04000000

band     1 # energy   -6.20911798 # occ.  2.00000000

ion      s     py     pz     px    dxy    dyz    dz2    dxz  x2-y2    tot
    1  0.113  0.000  0.000  0.000  0.000  0.000  0.000  0.000  0.000  0.113
    2  0.095  0.000  0.000  0.000  0.000  0.000  0.000  0.000  0.000  0.095
    3  0.100  0.000  0.000  0.000  0.000  0.000  0.000  0.000  0.000  0.100
    4  0.118  0.000  0.000  0.000  0.000  0.000  0.000  0.000  0.000  0.118
tot    0.427  0.000  0.000  0.000  0.000  0.000  0.000  0.000  0.000  0.428

band     2 # energy   -3.97778303 # occ.  2.00000000

ion      s     py     pz     px    dxy    dyz    dz2    dxz  x2-y2    tot
    1  0.107  0.002  0.002  0.003  0.000  0.000  0.000  0.000  0.000  0.113
    2  0.122  0.002  0.002  0.002  0.000  0.000  0.000  0.000  0.000  0.128
    3  0.120  0.002  0.002  0.002  0.000  0.000  0.000  0.000  0.000  0.127
    4  0.104  0.002  0.002  0.003  0.000  0.000  0.000  0.000  0.000  0.111
tot    0.453  0.008  0.008  0.010  0.000  0.000  0.000  0.000  0.000  0.479

band     3 # energy   -1.13384706 # occ.  2.00000000

ion      s     py     pz     px    dxy    dyz    dz2    dxz  x2-y2    tot
    1  0.047  0.015  0.015  0.016  0.000  0.000  0.000  0.000  0.000  0.093
    2  0.051  0.014  0.014  0.015  0.000  0.000  0.000  0.000  0.000  0.095
    3  0.048  0.016  0.016  0.016  0.000  0.000  0.000  0.000  0.000  0.096
    4  0.044  0.017  0.017  0.017  0.000  0.000  0.000  0.000  0.000  0.094
tot    0.190  0.062  0.062  0.064  0.000  0.000  0.000  0.000  0.000  0.377

band     4 # energy    4.22931009 # occ.  2.00000000

ion      s     py     pz     px    dxy    dyz    dz2    dxz  x2-y2    tot
    1  0.000  0.079  0.079  0.000  0.000  0.000  0.000  0.000  0.000  0.157
    2  0.000  0.031  0.031  0.000  0.000  0.000  0.000  0.000  0.000  0.063
    3  0.000  0.034  0.034  0.000  0.000  0.000  0.000  0.000  0.000  0.067
    4  0.000  0.081  0.081  0.000  0.000  0.000  0.000  0.000  0.000  0.162
tot    0.000  0.225  0.225  0.000  0.000  0.000  0.000  0.000  0.000  0.449

band     5 # energy    4.54736122 # occ.  2.00000000

ion      s     py     pz     px    dxy    dyz    dz2    dxz  x2-y2    tot
    1  0.000  0.015  0.015  0.067  0.000  0.000  0.000  0.000  0.000  0.096
    2  0.000  0.021  0.021  0.071  0.000  0.000  0.000  0.000  0.000  0.114
    3  0.000  0.022  0.022  0.076  0.000  0.000  0.000  0.000  0.000  0.119
    4  0.000  0.015  0.015  0.072  0.000  0.000  0.000  0.000  0.000  0.102
tot    0.000  0.073  0.073  0.286  0.000  0.000  0.000  0.000  0.000  0.432

band     6 # energy    5.44300610 # occ.  2.00000000

ion      s     py     pz     px    dxy    dyz    dz2    dxz  x2-y2    tot
    1  0.000  0.035  0.035  0.000  0.000  0.000  0.000  0.000  0.000  0.070
    2  0.000  0.077  0.077  0.000  0.000  0.000  0.000  0.000  0.000  0.154
    3  0.000  0.076  0.076  0.000  0.000  0.000  0.000  0.000  0.000  0.152
    4  0.000  0.033  0.033  0.000  0.000  0.000  0.000  0.000  0.000  0.067
tot    0.000  0.221  0.221  0.000  0.000  0.000  0.000  0.000  0.000  0.442

band     7 # energy    5.63981675 # occ.  2.00000000

ion      s     py     pz     px    dxy    dyz    dz2    dxz  x2-y2    tot
    1  0.000  0.000  0.000  0.113  0.000  0.000  0.000  0.000  0.000  0.113
    2  0.000  0.000  0.000  0.109  0.000  0.000  0.000  0.000  0.000  0.109
    3  0.000  0.000  0.000  0.104  0.000  0.000  0.000  0.000  0.000  0.104
    4  0.000  0.000  0.000  0.107  0.000  0.000  0.000  0.000  0.000  0.107
tot    0.000  0.000  0.000  0.433  0.000  0.000  0.000  0.000  0.000  0.434

band     8 # energy    5.86621620 # occ.  2.00000000

ion      s     py     pz     px    dxy    dyz    dz2    dxz  x2-y2    tot
    1  0.000  0.055  0.055  0.000  0.000  0.000  0.000  0.000  0.000  0.110
    2  0.000  0.052  0.052  0.000  0.000  0.000  0.000  0.000  0.000  0.103
    3  0.000  0.051  0.051  0.000  0.000  0.000  0.000  0.000  0.000  0.102
    4  0.000  0.053  0.053  0.000  0.000  0.000  0.000  0.000  0.000  0.107
tot    0.001  0.210  0.210  0.001  0.000  0.000  0.000  0.000  0.000  0.422

band     9 # energy    7.04850086 # occ. -0.00000000

ion      s     py     pz     px    dxy    dyz    dz2    dxz  x2-y2    tot
    1  0.103  0.006  0.006  0.002  0.000  0.000  0.000  0.000  0.000  0.116
    2  0.085  0.001  0.001  0.003  0.000  0.000  0.000  0.000  0.000  0.089
    3  0.086  0.003  0.003  0.003  0.000  0.000  0.000  0.000  0.000  0.095
    4  0.105  0.009  0.009  0.002  0.000  0.000  0.000  0.000  0.000  0.126
tot    0.379  0.019  0.019  0.010  0.000  0.000  0.000  0.000  0.000  0.426

band    10 # energy    8.03419547 # occ.  0.00000000

ion      s     py     pz     px    dxy    dyz    dz2    dxz  x2-y2    tot
    1  0.001  0.044  0.044  0.009  0.000  0.000  0.000  0.000  0.000  0.099
    2  0.000  0.033  0.033  0.000  0.000  0.000  0.000  0.000  0.000  0.067
    3  0.001  0.030  0.030  0.001  0.000  0.000  0.000  0.000  0.000  0.061
    4  0.001  0.038  0.038  0.011  0.000  0.000  0.000  0.000  0.000  0.089
tot    0.004  0.145  0.145  0.022  0.000  0.000  0.000  0.000  0.000  0.316

band    11 # energy    8.13757970 # occ.  0.00000000

ion      s     py     pz     px    dxy    dyz    dz2    dxz  x2-y2    tot
    1  0.000  0.001  0.001  0.091  0.000  0.000  0.000  0.000  0.000  0.093
    2  0.000  0.005  0.005  0.053  0.000  0.000  0.000  0.000  0.000  0.063
    3  0.000  0.005  0.005  0.048  0.000  0.000  0.000  0.000  0.000  0.058
    4  0.000  0.001  0.001  0.088  0.000  0.000  0.000  0.000  0.000  0.090
tot    0.000  0.012  0.012  0.280  0.000  0.000  0.000  0.000  0.000  0.304

band    12 # energy    8.32087002 # occ.  0.00000000

ion      s     py     pz     px    dxy    dyz    dz2    dxz  x2-y2    tot
    1  0.000  0.030  0.030  0.000  0.000  0.000  0.000  0.000  0.000  0.060
    2  0.000  0.046  0.046  0.000  0.000  0.000  0.000  0.000  0.000  0.092
    3  0.000  0.043  0.043  0.000  0.000  0.000  0.000  0.000  0.000  0.087
    4  0.000  0.028  0.028  0.000  0.000  0.000  0.000  0.000  0.000  0.056
tot    0.000  0.148  0.148  0.000  0.000  0.000  0.000  0.000  0.000  0.295

band    13 # energy    8.74385898 # occ.  0.00000000

ion      s     py     pz     px    dxy    dyz    dz2    dxz  x2-y2    tot
    1  0.170  0.000  0.000  0.001  0.000  0.000  0.000  0.000  0.000  0.172
    2  0.190  0.000  0.000  0.000  0.000  0.000  0.000  0.000  0.000  0.190
    3  0.188  0.000  0.000  0.000  0.000  0.000  0.000  0.000  0.000  0.189
    4  0.169  0.000  0.000  0.000  0.000  0.000  0.000  0.000  0.000  0.169
tot    0.718  0.000  0.000  0.002  0.000  0.000  0.000  0.000  0.000  0.720

band    14 # energy    8.85106003 # occ.  0.00000000

ion      s     py     pz     px    dxy    dyz    dz2    dxz  x2-y2    tot
    1  0.000  0.004  0.004  0.012  0.000  0.000  0.000  0.000  0.000  0.021
    2  0.000  0.012  0.012  0.056  0.000  0.000  0.000  0.000  0.000  0.082
    3  0.000  0.012  0.012  0.062  0.000  0.000  0.000  0.000  0.000  0.086
    4  0.001  0.005  0.005  0.015  0.000  0.000  0.000  0.000  0.000  0.024
tot    0.002  0.033  0.033  0.144  0.000  0.000  0.000  0.000  0.000  0.212


 k-point     2 :   -0.50000000 0.25000000 0.25000000     weight = 0.04000000

band     1 # energy   -5.43523010 # occ.  2.00000000

ion      s     py     pz     px    dxy    dyz    dz2    dxz  x2-y2    tot
    1  0.114  0.001  0.001  0.002  0.000  0.000  0.000  0.000  0.000  0.118
    2  0.091  0.001  0.001  0.001  0.000  0.000  0.000  0.000  0.000  0.095
    3  0.098  0.001  0.001  0.001  0.000  0.000  0.000  0.000  0.000  0.101
    4  0.121  0.001  0.001  0.002  0.000  0.000  0.000  0.000  0.000  0.125
tot    0.423  0.005  0.005  0.006  0.000  0.000  0.000  0.000  0.000  0.439

band     2 # energy   -3.57096659 # occ.  2.00000000

ion      s     py     pz     px    dxy    dyz    dz2    dxz  x2-y2    tot
    1  0.098  0.001  0.001  0.010  0.000  0.000  0.000  0.000  0.000  0.109
    2  0.117  0.001  0.001  0.010  0.000  0.000  0.000  0.000  0.000  0.129
    3  0.114  0.001  0.001  0.010  0.000  0.000  0.000  0.000  0.000  0.127
    4  0.095  0.001  0.001  0.010  0.000  0.000  0.000  0.000  0.000  0.107
tot    0.425  0.004  0.004  0.039  0.000  0.000  0.000  0.000  0.000  0.472

band     3 # energy   -0.63068018 # occ.  2.00000000

ion      s     py     pz     px    dxy    dyz    dz2    dxz  x2-y2    tot
    1  0.077  0.008  0.008  0.020  0.000  0.000  0.000  0.000  0.000  0.113
    2  0.082  0.008  0.008  0.018  0.000  0.000  0.000  0.000  0.000  0.116
    3  0.077  0.010  0.010  0.019  0.000  0.000  0.000  0.000  0.000  0.115
    4  0.072  0.010  0.010  0.021  0.000  0.000  0.000  0.000  0.000  0.112
tot    0.307  0.036  0.036  0.077  0.000  0.000  0.000  0.000  0.000  0.456

band     4 # energy    1.81546890 # occ.  2.00000000

ion      s     py     pz     px    dxy    dyz    dz2    dxz  x2-y2    tot
    1  0.046  0.020  0.020  0.021  0.000  0.000  0.000  0.000  0.000  0.106
    2  0.045  0.019  0.019  0.018  0.000  0.000  0.000  0.000  0.000  0.102
    3  0.048  0.018  0.018  0.022  0.000  0.000  0.000  0.000  0.000  0.106
    4  0.049  0.018  0.018  0.024  0.000  0.000  0.000  0.000  0.000  0.110
tot    0.188  0.076  0.076  0.085  0.000  0.000  0.000  0.000  0.000  0.424

band     5 # energy    2.22645637 # occ.  2.00000000

ion      s     py     pz     px    dxy    dyz    dz2    dxz  x2-y2    tot
    1  0.012  0.022  0.022  0.029  0.000  0.000  0.000  0.000  0.000  0.085
    2  0.014  0.023  0.023  0.031  0.000  0.000  0.000  0.000  0.000  0.091
    3  0.013  0.024  0.024  0.029  0.000  0.000  0.000  0.000  0.000  0.091
    4  0.011  0.024  0.024  0.026  0.000  0.000  0.000  0.000  0.000  0.085
tot    0.050  0.094  0.094  0.115  0.000  0.000  0.000  0.000  0.000  0.352

band     6 # energy    3.32163397 # occ.  2.00000000

ion      s     py     pz     px    dxy    dyz    dz2    dxz  x2-y2    tot
    1  0.000  0.066  0.066  0.000  0.000  0.000  0.000  0.000  0.000  0.132
    2  0.000  0.036  0.036  0.000  0.000  0.000  0.000  0.000  0.000  0.072
    3  0.000  0.037  0.037  0.000  0.000  0.000  0.000  0.000  0.000  0.075
    4  0.000  0.068  0.068  0.000  0.000  0.000  0.000  0.000  0.000  0.136
tot    0.000  0.207  0.207  0.000  0.000  0.000  0.000  0.000  0.000  0.414

band     7 # energy    4.72942222 # occ.  2.00000000

ion      s     py     pz     px    dxy    dyz    dz2    dxz  x2-y2    tot
    1  0.000  0.042  0.042  0.000  0.000  0.000  0.000  0.000  0.000  0.084
    2  0.000  0.068  0.068  0.000  0.000  0.000  0.000  0.000  0.000  0.136
    3  0.000  0.067  0.067  0.000  0.000  0.000  0.000  0.000  0.000  0.134
    4  0.000  0.041  0.041  0.000  0.000  0.000  0.000  0.000  0.000  0.082
tot    0.000  0.218  0.218  0.000  0.000  0.000  0.000  0.000  0.000  0.436

band     8 # energy    4.97472555 # occ.  2.00000000

ion      s     py     pz     px    dxy    dyz    dz2    dxz  x2-y2    tot
    1  0.000  0.017  0.017  0.071  0.000  0.000  0.000  0.000  0.000  0.105
    2  0.000  0.018  0.018  0.074  0.000  0.000  0.000  0.000  0.000  0.109
    3  0.000  0.019  0.019  0.069  0.000  0.000  0.000  0.000  0.000  0.106
    4  0.000  0.018  0.018  0.066  0.000  0.000  0.000  0.000  0.000  0.102
tot    0.000  0.071  0.071  0.280  0.000  0.000  0.000  0.000  0.000  0.423

band     9 # energy    7.02162389 # occ. -0.00000000

ion      s     py     pz     px    dxy    dyz    dz2    dxz  x2-y2    tot
    1  0.047  0.002  0.002  0.030  0.000  0.000  0.000  0.000  0.000  0.081
    2  0.011  0.001  0.001  0.014  0.000  0.000  0.000  0.000  0.000  0.027
    3  0.012  0.000  0.000  0.017  0.000  0.000  0.000  0.000  0.000  0.030
    4  0.047  0.002  0.002  0.036  0.000  0.000  0.000  0.000  0.000  0.086
tot    0.117  0.005  0.005  0.097  0.000  0.000  0.000  0.000  0.000  0.224

band    10 # energy    7.54988974 # occ.  0.00000000

ion      s     py     pz     px    dxy    dyz    dz2    dxz  x2-y2    tot
    1  0.064  0.009  0.009  0.003  0.000  0.000  0.000  0.000  0.000  0.086
    2  0.097  0.010  0.010  0.009  0.000  0.000  0.000  0.000  0.000  0.126
    3  0.093  0.008  0.008  0.013  0.000  0.000  0.000  0.000  0.000  0.123
    4  0.061  0.008  0.008  0.004  0.000  0.000  0.000  0.000  0.000  0.081
tot    0.316  0.036  0.036  0.028  0.000  0.000  0.000  0.000  0.000  0.416

band    11 # energy    8.96975393 # occ.  0.00000000

ion      s     py     pz     px    dxy    dyz    dz2    dxz  x2-y2    tot
    1  0.000  0.014  0.014  0.048  0.000  0.000  0.000  0.000  0.000  0.076
    2  0.000  0.010  0.010  0.054  0.000  0.000  0.000  0.000  0.000  0.075
    3  0.000  0.009  0.009  0.050  0.000  0.000  0.000  0.000  0.000  0.068
    4  0.000  0.012  0.012  0.043  0.000  0.000  0.000  0.000  0.000  0.068
tot    0.001  0.046  0.046  0.195  0.000  0.000  0.000  0.000  0.000  0.287

band    12 # energy    9.22363303 # occ.  0.00000000

ion      s     py     pz     px    dxy    dyz    dz2    dxz  x2-y2    tot
    1  0.000  0.032  0.032  0.000  0.000  0.000  0.000  0.000  0.000  0.064
    2  0.000  0.037  0.037  0.000  0.000  0.000  0.000  0.000  0.000  0.074
    3  0.000  0.035  0.035  0.000  0.000  0.000  0.000  0.000  0.000  0.071
    4  0.000  0.031  0.031  0.000  0.000  0.000  0.000  0.000  0.000  0.061
tot    0.000  0.135  0.135  0.000  0.000  0.000  0.000  0.000  0.000  0.271

band    13 # energy   10.19244365 # occ.  0.00000000

ion      s     py     pz     px    dxy    dyz    dz2    dxz  x2-y2    tot
    1  0.011  0.014  0.014  0.009  0.000  0.000  0.000  0.000  0.000  0.049
    2  0.009  0.019  0.019  0.008  0.000  0.000  0.000  0.000  0.000  0.056
    3  0.012  0.018  0.018  0.008  0.000  0.000  0.000  0.000  0.000  0.056
    4  0.013  0.014  0.014  0.009  0.000  0.000  0.000  0.000  0.000  0.051
tot    0.045  0.066  0.066  0.034  0.000  0.000  0.000  0.000  0.000  0.212

band    14 # energy   11.25276357 # occ.  0.00000000

ion      s     py     pz     px    dxy    dyz    dz2    dxz  x2-y2    tot
    1  0.032  0.024  0.024  0.027  0.000  0.000  0.000  0.000  0.000  0.108
    2  0.025  0.018  0.018  0.022  0.000  0.000  0.000  0.000  0.000  0.084
    3  0.027  0.016  0.016  0.024  0.000  0.000  0.000  0.000  0.000  0.084
    4  0.035  0.022  0.022  0.029  0.000  0.000  0.000  0.000  0.000  0.107
tot    0.120  0.080  0.080  0.102  0.000  0.000  0.000  0.000  0.000  0.382


 k-point     3 :    0.00000000 0.25000000 0.00000000     weight = 0.04000000

band     1 # energy   -5.41721336 # occ.  2.00000000

ion      s     py     pz     px    dxy    dyz    dz2    dxz  x2-y2    tot
    1  0.111  0.002  0.002  0.001  0.000  0.000  0.000  0.000  0.000  0.116
    2  0.092  0.001  0.001  0.001  0.000  0.000  0.000  0.000  0.000  0.096
    3  0.099  0.001  0.001  0.001  0.000  0.000  0.000  0.000  0.000  0.103
    4  0.118  0.002  0.002  0.001  0.000  0.000  0.000  0.000  0.000  0.122
tot    0.420  0.006  0.006  0.005  0.000  0.000  0.000  0.000  0.000  0.437

band     2 # energy   -3.57366631 # occ.  2.00000000

ion      s     py     pz     px    dxy    dyz    dz2    dxz  x2-y2    tot
    1  0.100  0.001  0.009  0.002  0.000  0.000  0.000  0.000  0.000  0.111
    2  0.116  0.001  0.010  0.001  0.000  0.000  0.000  0.000  0.000  0.128
    3  0.113  0.001  0.010  0.001  0.000  0.000  0.000  0.000  0.000  0.125
    4  0.096  0.001  0.010  0.002  0.000  0.000  0.000  0.000  0.000  0.108
tot    0.425  0.004  0.038  0.006  0.000  0.000  0.000  0.000  0.000  0.472

band     3 # energy   -0.60266410 # occ.  2.00000000

ion      s     py     pz     px    dxy    dyz    dz2    dxz  x2-y2    tot
    1  0.080  0.008  0.018  0.009  0.000  0.000  0.000  0.000  0.000  0.115
    2  0.078  0.008  0.016  0.009  0.000  0.000  0.000  0.000  0.000  0.112
    3  0.075  0.010  0.019  0.010  0.000  0.000  0.000  0.000  0.000  0.113
    4  0.077  0.010  0.021  0.009  0.000  0.000  0.000  0.000  0.000  0.117
tot    0.311  0.036  0.074  0.036  0.000  0.000  0.000  0.000  0.000  0.458

band     4 # energy    1.60821782 # occ.  2.00000000

ion      s     py     pz     px    dxy    dyz    dz2    dxz  x2-y2    tot
    1  0.056  0.036  0.029  0.028  0.000  0.000  0.000  0.000  0.000  0.150
    2  0.037  0.009  0.011  0.011  0.000  0.000  0.000  0.000  0.000  0.067
    3  0.038  0.008  0.014  0.008  0.000  0.000  0.000  0.000  0.000  0.068
    4  0.058  0.035  0.033  0.025  0.000  0.000  0.000  0.000  0.000  0.152
tot    0.189  0.088  0.087  0.073  0.000  0.000  0.000  0.000  0.000  0.437

band     5 # energy    2.10056915 # occ.  2.00000000

ion      s     py     pz     px    dxy    dyz    dz2    dxz  x2-y2    tot
    1  0.004  0.013  0.024  0.011  0.000  0.000  0.000  0.000  0.000  0.052
    2  0.027  0.033  0.040  0.032  0.000  0.000  0.000  0.000  0.000  0.131
    3  0.026  0.035  0.035  0.034  0.000  0.000  0.000  0.000  0.000  0.130
    4  0.002  0.015  0.020  0.012  0.000  0.000  0.000  0.000  0.000  0.049
tot    0.059  0.095  0.119  0.090  0.000  0.000  0.000  0.000  0.000  0.363

band     6 # energy    3.47549494 # occ.  2.00000000

ion      s     py     pz     px    dxy    dyz    dz2    dxz  x2-y2    tot
    1  0.000  0.049  0.000  0.057  0.000  0.000  0.000  0.000  0.000  0.106
    2  0.000  0.050  0.000  0.041  0.000  0.000  0.000  0.000  0.000  0.091
    3  0.000  0.049  0.000  0.045  0.000  0.000  0.000  0.000  0.000  0.095
    4  0.000  0.048  0.000  0.061  0.000  0.000  0.000  0.000  0.000  0.110
tot    0.001  0.196  0.001  0.204  0.000  0.000  0.000  0.000  0.000  0.402

band     7 # energy    4.80771484 # occ.  2.00000000

ion      s     py     pz     px    dxy    dyz    dz2    dxz  x2-y2    tot
    1  0.000  0.016  0.016  0.068  0.000  0.000  0.000  0.000  0.000  0.100
    2  0.000  0.023  0.018  0.078  0.000  0.000  0.000  0.000  0.000  0.119
    3  0.000  0.021  0.018  0.077  0.000  0.000  0.000  0.000  0.000  0.116
    4  0.000  0.014  0.016  0.066  0.000  0.000  0.000  0.000  0.000  0.097
tot    0.000  0.074  0.068  0.289  0.000  0.000  0.000  0.000  0.000  0.432

band     8 # energy    5.04199664 # occ.  2.00000000

ion      s     py     pz     px    dxy    dyz    dz2    dxz  x2-y2    tot
    1  0.000  0.052  0.053  0.000  0.000  0.000  0.000  0.000  0.000  0.105
    2  0.000  0.050  0.055  0.000  0.000  0.000  0.000  0.000  0.000  0.105
    3  0.000  0.052  0.052  0.000  0.000  0.000  0.000  0.000  0.000  0.104
    4  0.000  0.053  0.051  0.000  0.000  0.000  0.000  0.000  0.000  0.104
tot    0.000  0.206  0.212  0.000  0.000  0.000  0.000  0.000  0.000  0.418

band     9 # energy    7.16812613 # occ. -0.00000000

ion      s     py     pz     px    dxy    dyz    dz2    dxz  x2-y2    tot
    1  0.026  0.000  0.026  0.003  0.000  0.000  0.000  0.000  0.000  0.055
    2  0.024  0.002  0.021  0.001  0.000  0.000  0.000  0.000  0.000  0.048
    3  0.025  0.001  0.023  0.001  0.000  0.000  0.000  0.000  0.000  0.049
    4  0.027  0.000  0.027  0.004  0.000  0.000  0.000  0.000  0.000  0.058
tot    0.101  0.004  0.096  0.009  0.000  0.000  0.000  0.000  0.000  0.211

band    10 # energy    7.62073281 # occ.  0.00000000

ion      s     py     pz     px    dxy    dyz    dz2    dxz  x2-y2    tot
    1  0.074  0.007  0.006  0.013  0.000  0.000  0.000  0.000  0.000  0.100
    2  0.081  0.009  0.008  0.010  0.000  0.000  0.000  0.000  0.000  0.107
    3  0.078  0.008  0.009  0.007  0.000  0.000  0.000  0.000  0.000  0.102
    4  0.071  0.006  0.007  0.011  0.000  0.000  0.000  0.000  0.000  0.095
tot    0.304  0.030  0.030  0.041  0.000  0.000  0.000  0.000  0.000  0.405

band    11 # energy    9.02241633 # occ.  0.00000000

ion      s     py     pz     px    dxy    dyz    dz2    dxz  x2-y2    tot
    1  0.000  0.043  0.038  0.000  0.000  0.000  0.000  0.000  0.000  0.081
    2  0.000  0.034  0.041  0.000  0.000  0.000  0.000  0.000  0.000  0.075
    3  0.000  0.030  0.036  0.000  0.000  0.000  0.000  0.000  0.000  0.066
    4  0.000  0.037  0.033  0.000  0.000  0.000  0.000  0.000  0.000  0.070
tot    0.000  0.144  0.147  0.001  0.000  0.000  0.000  0.000  0.000  0.292

band    12 # energy    9.28350379 # occ.  0.00000000

ion      s     py     pz     px    dxy    dyz    dz2    dxz  x2-y2    tot
    1  0.001  0.014  0.012  0.040  0.000  0.000  0.000  0.000  0.000  0.067
    2  0.000  0.012  0.010  0.050  0.000  0.000  0.000  0.000  0.000  0.071
    3  0.000  0.011  0.011  0.050  0.000  0.000  0.000  0.000  0.000  0.071
    4  0.000  0.013  0.013  0.040  0.000  0.000  0.000  0.000  0.000  0.067
tot    0.001  0.050  0.046  0.179  0.000  0.000  0.000  0.000  0.000  0.277

band    13 # energy   10.05595114 # occ.  0.00000000

ion      s     py     pz     px    dxy    dyz    dz2    dxz  x2-y2    tot
    1  0.007  0.014  0.003  0.022  0.000  0.000  0.000  0.000  0.000  0.046
    2  0.009  0.020  0.006  0.013  0.000  0.000  0.000  0.000  0.000  0.047
    3  0.011  0.020  0.010  0.013  0.000  0.000  0.000  0.000  0.000  0.054
    4  0.008  0.017  0.007  0.023  0.000  0.000  0.000  0.000  0.000  0.054
tot    0.035  0.071  0.026  0.070  0.000  0.000  0.000  0.000  0.000  0.202

band    14 # energy   11.22244719 # occ.  0.00000000

ion      s     py     pz     px    dxy    dyz    dz2    dxz  x2-y2    tot
    1  0.038  0.023  0.026  0.021  0.000  0.000  0.000  0.000  0.000  0.108
    2  0.021  0.017  0.020  0.017  0.000  0.000  0.000  0.000  0.000  0.075
    3  0.022  0.017  0.020  0.020  0.000  0.000  0.000  0.000  0.000  0.080
    4  0.039  0.024  0.026  0.023  0.000  0.000  0.000  0.000  0.000  0.112
tot    0.121  0.080  0.093  0.081  0.000  0.000  0.000  0.000  0.000  0.375


 k-point     4 :   -0.50000000 0.00000000 0.00000000     weight = 0.04000000

band     1 # energy   -5.52616447 # occ.  2.00000000

ion      s     py     pz     px    dxy    dyz    dz2    dxz  x2-y2    tot
    1  0.170  0.001  0.001  0.002  0.000  0.000  0.000  0.000  0.000  0.173
    2  0.004  0.002  0.002  0.002  0.000  0.000  0.000  0.000  0.000  0.011
    3  0.043  0.002  0.002  0.002  0.000  0.000  0.000  0.000  0.000  0.047
    4  0.210  0.000  0.000  0.000  0.000  0.000  0.000  0.000  0.000  0.210
tot    0.426  0.005  0.005  0.006  0.000  0.000  0.000  0.000  0.000  0.441

band     2 # energy   -5.32953506 # occ.  2.00000000

ion      s     py     pz     px    dxy    dyz    dz2    dxz  x2-y2    tot
    1  0.042  0.001  0.001  0.001  0.000  0.000  0.000  0.000  0.000  0.046
    2  0.205  0.000  0.000  0.000  0.000  0.000  0.000  0.000  0.000  0.205
    3  0.169  0.001  0.001  0.001  0.000  0.000  0.000  0.000  0.000  0.172
    4  0.004  0.003  0.003  0.003  0.000  0.000  0.000  0.000  0.000  0.012
tot    0.420  0.005  0.005  0.005  0.000  0.000  0.000  0.000  0.000  0.435

band     3 # energy    1.73763160 # occ.  2.00000000

ion      s     py     pz     px    dxy    dyz    dz2    dxz  x2-y2    tot
    1  0.085  0.002  0.002  0.001  0.000  0.000  0.000  0.000  0.000  0.090
    2  0.079  0.000  0.000  0.000  0.000  0.000  0.000  0.000  0.000  0.079
    3  0.009  0.038  0.038  0.039  0.000  0.000  0.000  0.000  0.000  0.125
    4  0.017  0.038  0.038  0.043  0.000  0.000  0.000  0.000  0.000  0.137
tot    0.191  0.078  0.078  0.083  0.000  0.000  0.000  0.000  0.000  0.431

band     4 # energy    1.88958504 # occ.  2.00000000

ion      s     py     pz     px    dxy    dyz    dz2    dxz  x2-y2    tot
    1  0.006  0.035  0.035  0.044  0.000  0.000  0.000  0.000  0.000  0.120
    2  0.019  0.038  0.038  0.041  0.000  0.000  0.000  0.000  0.000  0.136
    3  0.088  0.001  0.001  0.001  0.000  0.000  0.000  0.000  0.000  0.091
    4  0.072  0.000  0.000  0.000  0.000  0.000  0.000  0.000  0.000  0.073
tot    0.186  0.074  0.074  0.086  0.000  0.000  0.000  0.000  0.000  0.419

band     5 # energy    4.46223048 # occ.  2.00000000

ion      s     py     pz     px    dxy    dyz    dz2    dxz  x2-y2    tot
    1  0.000  0.105  0.105  0.000  0.000  0.000  0.000  0.000  0.000  0.210
    2  0.000  0.000  0.000  0.000  0.000  0.000  0.000  0.000  0.000  0.001
    3  0.000  0.007  0.007  0.000  0.000  0.000  0.000  0.000  0.000  0.014
    4  0.000  0.112  0.112  0.000  0.000  0.000  0.000  0.000  0.000  0.224
tot    0.000  0.224  0.224  0.000  0.000  0.000  0.000  0.000  0.000  0.449

band     6 # energy    4.92739128 # occ.  2.00000000

ion      s     py     pz     px    dxy    dyz    dz2    dxz  x2-y2    tot
    1  0.000  0.000  0.000  0.000  0.000  0.000  0.000  0.000  0.000  0.000
    2  0.000  0.033  0.033  0.122  0.000  0.000  0.000  0.000  0.000  0.188
    3  0.000  0.036  0.036  0.143  0.000  0.000  0.000  0.000  0.000  0.214
    4  0.000  0.004  0.004  0.017  0.000  0.000  0.000  0.000  0.000  0.025
tot    0.000  0.073  0.073  0.282  0.000  0.000  0.000  0.000  0.000  0.427

band     7 # energy    4.94542583 # occ.  2.00000000

ion      s     py     pz     px    dxy    dyz    dz2    dxz  x2-y2    tot
    1  0.000  0.007  0.007  0.000  0.000  0.000  0.000  0.000  0.000  0.015
    2  0.000  0.106  0.106  0.000  0.000  0.000  0.000  0.000  0.000  0.213
    3  0.000  0.100  0.100  0.000  0.000  0.000  0.000  0.000  0.000  0.200
    4  0.000  0.000  0.000  0.000  0.000  0.000  0.000  0.000  0.000  0.001
tot    0.000  0.214  0.214  0.000  0.000  0.000  0.000  0.000  0.000  0.429

band     8 # energy    5.02799161 # occ.  2.00000000

ion      s     py     pz     px    dxy    dyz    dz2    dxz  x2-y2    tot
    1  0.000  0.036  0.036  0.137  0.000  0.000  0.000  0.000  0.000  0.208
    2  0.000  0.003  0.003  0.016  0.000  0.000  0.000  0.000  0.000  0.023
    3  0.000  0.000  0.000  0.000  0.000  0.000  0.000  0.000  0.000  0.000
    4  0.000  0.031  0.031  0.124  0.000  0.000  0.000  0.000  0.000  0.187
tot    0.000  0.070  0.070  0.277  0.000  0.000  0.000  0.000  0.000  0.418

band     9 # energy    7.43236509 # occ.  0.00000000

ion      s     py     pz     px    dxy    dyz    dz2    dxz  x2-y2    tot
    1  0.145  0.019  0.019  0.009  0.000  0.000  0.000  0.000  0.000  0.192
    2  0.000  0.003  0.003  0.006  0.000  0.000  0.000  0.000  0.000  0.013
    3  0.019  0.001  0.001  0.001  0.000  0.000  0.000  0.000  0.000  0.021
    4  0.166  0.014  0.014  0.007  0.000  0.000  0.000  0.000  0.000  0.201
tot    0.330  0.037  0.037  0.023  0.000  0.000  0.000  0.000  0.000  0.428

band    10 # energy    7.64219681 # occ.  0.00000000

ion      s     py     pz     px    dxy    dyz    dz2    dxz  x2-y2    tot
    1  0.021  0.000  0.000  0.002  0.000  0.000  0.000  0.000  0.000  0.024
    2  0.157  0.013  0.013  0.010  0.000  0.000  0.000  0.000  0.000  0.195
    3  0.140  0.015  0.015  0.015  0.000  0.000  0.000  0.000  0.000  0.185
    4  0.000  0.005  0.005  0.002  0.000  0.000  0.000  0.000  0.000  0.013
tot    0.319  0.034  0.034  0.030  0.000  0.000  0.000  0.000  0.000  0.417

band    11 # energy    8.74094436 # occ.  0.00000000

ion      s     py     pz     px    dxy    dyz    dz2    dxz  x2-y2    tot
    1  0.001  0.023  0.023  0.095  0.000  0.000  0.000  0.000  0.000  0.141
    2  0.001  0.003  0.003  0.017  0.000  0.000  0.000  0.000  0.000  0.024
    3  0.000  0.002  0.002  0.004  0.000  0.000  0.000  0.000  0.000  0.007
    4  0.001  0.018  0.018  0.086  0.000  0.000  0.000  0.000  0.000  0.123
tot    0.002  0.045  0.045  0.202  0.000  0.000  0.000  0.000  0.000  0.295

band    12 # energy    9.13234462 # occ.  0.00000000

ion      s     py     pz     px    dxy    dyz    dz2    dxz  x2-y2    tot
    1  0.000  0.002  0.002  0.000  0.000  0.000  0.000  0.000  0.000  0.003
    2  0.000  0.058  0.058  0.000  0.000  0.000  0.000  0.000  0.000  0.116
    3  0.000  0.069  0.069  0.000  0.000  0.000  0.000  0.000  0.000  0.138
    4  0.000  0.011  0.011  0.000  0.000  0.000  0.000  0.000  0.000  0.023
tot    0.000  0.140  0.140  0.000  0.000  0.000  0.000  0.000  0.000  0.280

band    13 # energy    9.18349369 # occ.  0.00000000

ion      s     py     pz     px    dxy    dyz    dz2    dxz  x2-y2    tot
    1  0.000  0.001  0.001  0.005  0.000  0.000  0.000  0.000  0.000  0.007
    2  0.000  0.021  0.021  0.077  0.000  0.000  0.000  0.000  0.000  0.120
    3  0.000  0.022  0.022  0.090  0.000  0.000  0.000  0.000  0.000  0.133
    4  0.000  0.004  0.004  0.015  0.000  0.000  0.000  0.000  0.000  0.022
tot    0.000  0.047  0.047  0.187  0.000  0.000  0.000  0.000  0.000  0.282

band    14 # energy    9.31650151 # occ.  0.00000000

ion      s     py     pz     px    dxy    dyz    dz2    dxz  x2-y2    tot
    1  0.000  0.063  0.063  0.000  0.000  0.000  0.000  0.000  0.000  0.126
    2  0.000  0.013  0.013  0.000  0.000  0.000  0.000  0.000  0.000  0.027
    3  0.000  0.001  0.001  0.000  0.000  0.000  0.000  0.000  0.000  0.003
    4  0.000  0.053  0.053  0.000  0.000  0.000  0.000  0.000  0.000  0.105
tot    0.000  0.130  0.130  0.000  0.000  0.000  0.000  0.000  0.000  0.261


 k-point     5 :    0.00000000-0.50000000-0.50000000     weight = 0.04000000

band     1 # energy   -4.00321581 # occ.  2.00000000

ion      s     py     pz     px    dxy    dyz    dz2    dxz  x2-y2    tot
    1  0.129  0.002  0.002  0.005  0.000  0.000  0.000  0.000  0.000  0.137
    2  0.084  0.002  0.002  0.002  0.000  0.000  0.000  0.000  0.000  0.089
    3  0.097  0.002  0.002  0.001  0.000  0.000  0.000  0.000  0.000  0.103
    4  0.144  0.002  0.002  0.003  0.000  0.000  0.000  0.000  0.000  0.152
tot    0.454  0.008  0.008  0.011  0.000  0.000  0.000  0.000  0.000  0.480

band     2 # energy   -2.26748179 # occ.  2.00000000

ion      s     py     pz     px    dxy    dyz    dz2    dxz  x2-y2    tot
    1  0.087  0.000  0.000  0.018  0.000  0.000  0.000  0.000  0.000  0.105
    2  0.119  0.000  0.000  0.022  0.000  0.000  0.000  0.000  0.000  0.142
    3  0.119  0.000  0.000  0.023  0.000  0.000  0.000  0.000  0.000  0.142
    4  0.075  0.000  0.000  0.021  0.000  0.000  0.000  0.000  0.000  0.097